 Entering Gaussian System, Link 0=g09
 Input=aagts1.com
 Output=aagts1.log
 Initial command:
 /afs/crc.nd.edu/x86_64_linux/gaussian/09D01/pgi12.8/g09/l1.exe "/scratch/Gau-2843.inp" -scrdir="/scratch/"
 Entering Link 1 = /afs/crc.nd.edu/x86_64_linux/gaussian/09D01/pgi12.8/g09/l1.exe PID=      2844.
  
 Copyright (c) 1988,1990,1992,1993,1995,1998,2003,2009,2013,
            Gaussian, Inc.  All Rights Reserved.
  
 This is part of the Gaussian(R) 09 program.  It is based on
 the Gaussian(R) 03 system (copyright 2003, Gaussian, Inc.),
 the Gaussian(R) 98 system (copyright 1998, Gaussian, Inc.),
 the Gaussian(R) 94 system (copyright 1995, Gaussian, Inc.),
 the Gaussian 92(TM) system (copyright 1992, Gaussian, Inc.),
 the Gaussian 90(TM) system (copyright 1990, Gaussian, Inc.),
 the Gaussian 88(TM) system (copyright 1988, Gaussian, Inc.),
 the Gaussian 86(TM) system (copyright 1986, Carnegie Mellon
 University), and the Gaussian 82(TM) system (copyright 1983,
 Carnegie Mellon University). Gaussian is a federally registered
 trademark of Gaussian, Inc.
  
 This software contains proprietary and confidential information,
 including trade secrets, belonging to Gaussian, Inc.
  
 This software is provided under written license and may be
 used, copied, transmitted, or stored only in accord with that
 written license.
  
 The following legend is applicable only to US Government
 contracts under FAR:
  
                    RESTRICTED RIGHTS LEGEND
  
 Use, reproduction and disclosure by the US Government is
 subject to restrictions as set forth in subparagraphs (a)
 and (c) of the Commercial Computer Software - Restricted
 Rights clause in FAR 52.227-19.
  
 Gaussian, Inc.
 340 Quinnipiac St., Bldg. 40, Wallingford CT 06492
  
  
 ---------------------------------------------------------------
 Warning -- This program may not be used in any manner that
 competes with the business of Gaussian, Inc. or will provide
 assistance to any competitor of Gaussian, Inc.  The licensee
 of this program is prohibited from giving any competitor of
 Gaussian, Inc. access to this program.  By using this program,
 the user acknowledges that Gaussian, Inc. is engaged in the
 business of creating and licensing software in the field of
 computational chemistry and represents and warrants to the
 licensee that it is not a competitor of Gaussian, Inc. and that
 it will not use this program in any manner prohibited above.
 ---------------------------------------------------------------
  

 Cite this work as:
 Gaussian 09, Revision D.01,
 M. J. Frisch, G. W. Trucks, H. B. Schlegel, G. E. Scuseria, 
 M. A. Robb, J. R. Cheeseman, G. Scalmani, V. Barone, B. Mennucci, 
 G. A. Petersson, H. Nakatsuji, M. Caricato, X. Li, H. P. Hratchian, 
 A. F. Izmaylov, J. Bloino, G. Zheng, J. L. Sonnenberg, M. Hada, 
 M. Ehara, K. Toyota, R. Fukuda, J. Hasegawa, M. Ishida, T. Nakajima, 
 Y. Honda, O. Kitao, H. Nakai, T. Vreven, J. A. Montgomery, Jr., 
 J. E. Peralta, F. Ogliaro, M. Bearpark, J. J. Heyd, E. Brothers, 
 K. N. Kudin, V. N. Staroverov, T. Keith, R. Kobayashi, J. Normand, 
 K. Raghavachari, A. Rendell, J. C. Burant, S. S. Iyengar, J. Tomasi, 
 M. Cossi, N. Rega, J. M. Millam, M. Klene, J. E. Knox, J. B. Cross, 
 V. Bakken, C. Adamo, J. Jaramillo, R. Gomperts, R. E. Stratmann, 
 O. Yazyev, A. J. Austin, R. Cammi, C. Pomelli, J. W. Ochterski, 
 R. L. Martin, K. Morokuma, V. G. Zakrzewski, G. A. Voth, 
 P. Salvador, J. J. Dannenberg, S. Dapprich, A. D. Daniels, 
 O. Farkas, J. B. Foresman, J. V. Ortiz, J. Cioslowski, 
 and D. J. Fox, Gaussian, Inc., Wallingford CT, 2013.
 
 ******************************************
 Gaussian 09:  AM64L-G09RevD.01 24-Apr-2013
                 3-Jun-2016 
 ******************************************
 %oldchk=aagts1.chk
 %mem=2GB
 %nproc=8
 Will use up to    8 processors via shared memory.
 Copying data from "aagts1.chk" to current chk file "/scratch/Gau-2844.chk".
 ----------------------------------------------------------------------
 #p geom=allcheck guess=read chkbasis freq=(noraman,HPModes) pop=(Chelp
 G,readradii) m06 empiricaldispersion=gd3 int=ultrafine
 ----------------------------------------------------------------------
 1/10=4,29=7,30=1,38=1/1,3;
 2/12=2,40=1/2;
 3/5=7,6=2,11=2,14=-4,16=1,25=1,30=1,67=1,71=2,74=-54,75=-5,116=-2,124=31,140=1/1,2,3;
 4/5=1/1;
 5/5=2,38=6,98=1/2;
 8/6=4,10=90,11=11/1;
 11/6=1,8=1,9=11,15=111,16=1/1,2,10;
 10/6=1/2;
 6/7=2,8=2,9=2,10=2,15=8,18=1,20=103,28=1/1,2;
 7/8=11,10=1,25=1/1,2,3,16;
 1/10=4,30=1/3;
 99//99;
 Leave Link    1 at Fri Jun  3 18:35:52 2016, MaxMem=   268435456 cpu:         2.2
 (Enter /afs/crc.nd.edu/x86_64_linux/gaussian/09D01/pgi12.8/g09/l101.exe)
 Structure from the checkpoint file:  "/scratch/Gau-2844.chk"
 ------------
 freq with HP
 ------------
 Charge =  1 Multiplicity = 1
 Redundant internal coordinates found in file.
 Pd,0,-0.1139138941,0.5757398509,0.1790023855
 C,0,-0.4640390635,2.6238550684,0.4035090115
 C,0,-1.7731808445,2.1500228161,0.6388669605
 C,0,-2.1429797264,0.1298881455,0.1854261915
 N,0,2.0358018567,0.6496022952,0.1206669386
 C,0,2.5935605617,-0.5044916512,0.0163172707
 C,0,1.8232025724,-1.7449245809,-0.1123280779
 N,0,0.4861350906,-1.5693250301,-0.0762874429
 C,0,-0.2993356502,-2.6368786257,-0.1928360048
 H,0,-1.3732819706,-2.4537730548,-0.1572115778
 O,0,3.9170521707,-0.5605725493,0.0270369319
 C,0,-4.2939339138,-1.6113910332,-0.1201683302
 C,0,-3.7793156894,-0.9379101274,-1.2283432581
 C,0,-2.7104603639,-0.0557975882,-1.07837435
 C,0,-2.6625844428,-0.5303022599,1.3008625269
 C,0,-3.7370095672,-1.4058276033,1.1414095912
 O,0,-0.5899901795,4.698850409,-0.636587309
 C,0,-0.1723090145,3.3722685769,-0.8681911747
 H,0,-5.1406307914,-2.2850654718,-0.2380214185
 H,0,-4.2193934782,-1.0875084614,-2.213088028
 H,0,-2.3261471895,0.4871002872,-1.9434576441
 H,0,-2.2359346098,-0.3648006002,2.291030157
 H,0,-4.1440349817,-1.9203655481,2.0106161372
 H,0,-0.3867849556,5.2536264149,-1.4032308062
 H,0,-0.7260451827,2.9126656882,-1.7076876239
 H,0,0.9028769172,3.3224695711,-1.1106134811
 H,0,0.1418019055,2.9063046366,1.2708704311
 H,0,-2.1271142472,2.0550237784,1.6637546251
 H,0,-2.5457630521,2.3983570268,-0.088650575
 C,0,2.4197785859,-2.9874922404,-0.2600498685
 C,0,1.5905878329,-4.1021878421,-0.3810035931
 C,0,0.2147603028,-3.9251561642,-0.3483592568
 C,0,4.3884576878,0.8007375641,0.2277038098
 C,0,3.1034948476,1.6479020075,0.2142166276
 H,0,3.5037493442,-3.0727946743,-0.2798426981
 H,0,2.019902393,-5.0947304351,-0.4994988862
 H,0,-0.4652287992,-4.7683606389,-0.4403680819
 H,0,4.9216055671,0.8197901502,1.1830496576
 H,0,5.0851312168,1.0277187964,-0.5833666955
 H,0,2.9783194662,2.2503461025,1.1222653569
 H,0,3.0522132887,2.3260569945,-0.6476584283
 Recover connectivity data from disk.
 NAtoms=     41 NQM=       41 NQMF=       0 NMMI=      0 NMMIF=      0
                NMic=       0 NMicF=      0.
                    Isotopes and Nuclear Properties:
 (Nuclear quadrupole moments (NQMom) in fm**2, nuclear magnetic moments (NMagM)
  in nuclear magnetons)

  Atom         1           2           3           4           5           6           7           8           9          10
 IAtWgt=         106          12          12          12          14          12          12          14          12           1
 AtmWgt= 105.9032000  12.0000000  12.0000000  12.0000000  14.0030740  12.0000000  12.0000000  14.0030740  12.0000000   1.0078250
 NucSpn=           0           0           0           0           2           0           0           2           0           1
 AtZEff=-237.3600000  -3.6000000  -3.6000000  -3.6000000  -4.5500000  -3.6000000  -3.6000000  -4.5500000  -3.6000000  -1.0000000
 NQMom=    0.0000000   0.0000000   0.0000000   0.0000000   2.0440000   0.0000000   0.0000000   2.0440000   0.0000000   0.0000000
 NMagM=    0.0000000   0.0000000   0.0000000   0.0000000   0.4037610   0.0000000   0.0000000   0.4037610   0.0000000   2.7928460
 AtZNuc=  46.0000000   6.0000000   6.0000000   6.0000000   7.0000000   6.0000000   6.0000000   7.0000000   6.0000000   1.0000000

  Atom        11          12          13          14          15          16          17          18          19          20
 IAtWgt=          16          12          12          12          12          12          16          12           1           1
 AtmWgt=  15.9949146  12.0000000  12.0000000  12.0000000  12.0000000  12.0000000  15.9949146  12.0000000   1.0078250   1.0078250
 NucSpn=           0           0           0           0           0           0           0           0           1           1
 AtZEff=  -5.6000000  -3.6000000  -3.6000000  -3.6000000  -3.6000000  -3.6000000  -5.6000000  -3.6000000  -1.0000000  -1.0000000
 NQMom=    0.0000000   0.0000000   0.0000000   0.0000000   0.0000000   0.0000000   0.0000000   0.0000000   0.0000000   0.0000000
 NMagM=    0.0000000   0.0000000   0.0000000   0.0000000   0.0000000   0.0000000   0.0000000   0.0000000   2.7928460   2.7928460
 AtZNuc=   8.0000000   6.0000000   6.0000000   6.0000000   6.0000000   6.0000000   8.0000000   6.0000000   1.0000000   1.0000000

  Atom        21          22          23          24          25          26          27          28          29          30
 IAtWgt=           1           1           1           1           1           1           1           1           1          12
 AtmWgt=   1.0078250   1.0078250   1.0078250   1.0078250   1.0078250   1.0078250   1.0078250   1.0078250   1.0078250  12.0000000
 NucSpn=           1           1           1           1           1           1           1           1           1           0
 AtZEff=  -1.0000000  -1.0000000  -1.0000000  -1.0000000  -1.0000000  -1.0000000  -1.0000000  -1.0000000  -1.0000000  -3.6000000
 NQMom=    0.0000000   0.0000000   0.0000000   0.0000000   0.0000000   0.0000000   0.0000000   0.0000000   0.0000000   0.0000000
 NMagM=    2.7928460   2.7928460   2.7928460   2.7928460   2.7928460   2.7928460   2.7928460   2.7928460   2.7928460   0.0000000
 AtZNuc=   1.0000000   1.0000000   1.0000000   1.0000000   1.0000000   1.0000000   1.0000000   1.0000000   1.0000000   6.0000000

  Atom        31          32          33          34          35          36          37          38          39          40
 IAtWgt=          12          12          12          12           1           1           1           1           1           1
 AtmWgt=  12.0000000  12.0000000  12.0000000  12.0000000   1.0078250   1.0078250   1.0078250   1.0078250   1.0078250   1.0078250
 NucSpn=           0           0           0           0           1           1           1           1           1           1
 AtZEff=  -3.6000000  -3.6000000  -3.6000000  -3.6000000  -1.0000000  -1.0000000  -1.0000000  -1.0000000  -1.0000000  -1.0000000
 NQMom=    0.0000000   0.0000000   0.0000000   0.0000000   0.0000000   0.0000000   0.0000000   0.0000000   0.0000000   0.0000000
 NMagM=    0.0000000   0.0000000   0.0000000   0.0000000   2.7928460   2.7928460   2.7928460   2.7928460   2.7928460   2.7928460
 AtZNuc=   6.0000000   6.0000000   6.0000000   6.0000000   1.0000000   1.0000000   1.0000000   1.0000000   1.0000000   1.0000000

  Atom        41
 IAtWgt=           1
 AtmWgt=   1.0078250
 NucSpn=           1
 AtZEff=  -1.0000000
 NQMom=    0.0000000
 NMagM=    2.7928460
 AtZNuc=   1.0000000
 Leave Link  101 at Fri Jun  3 18:35:52 2016, MaxMem=   268435456 cpu:         1.2
 (Enter /afs/crc.nd.edu/x86_64_linux/gaussian/09D01/pgi12.8/g09/l103.exe)

 GradGradGradGradGradGradGradGradGradGradGradGradGradGradGradGradGradGrad
 Berny optimization.
 Initialization pass.
                           ----------------------------
                           !    Initial Parameters    !
                           ! (Angstroms and Degrees)  !
 --------------------------                            --------------------------
 ! Name  Definition              Value          Derivative Info.                !
 --------------------------------------------------------------------------------
 ! R1    R(1,2)                  2.0899         calculate D2E/DX2 analytically  !
 ! R2    R(1,3)                  2.333          calculate D2E/DX2 analytically  !
 ! R3    R(1,4)                  2.0775         calculate D2E/DX2 analytically  !
 ! R4    R(1,5)                  2.1518         calculate D2E/DX2 analytically  !
 ! R5    R(1,8)                  2.242          calculate D2E/DX2 analytically  !
 ! R6    R(2,3)                  1.412          calculate D2E/DX2 analytically  !
 ! R7    R(2,18)                 1.5041         calculate D2E/DX2 analytically  !
 ! R8    R(2,27)                 1.0951         calculate D2E/DX2 analytically  !
 ! R9    R(3,28)                 1.0884         calculate D2E/DX2 analytically  !
 ! R10   R(3,29)                 1.0899         calculate D2E/DX2 analytically  !
 ! R11   R(4,14)                 1.3978         calculate D2E/DX2 analytically  !
 ! R12   R(4,15)                 1.3964         calculate D2E/DX2 analytically  !
 ! R13   R(5,6)                  1.286          calculate D2E/DX2 analytically  !
 ! R14   R(5,34)                 1.4647         calculate D2E/DX2 analytically  !
 ! R15   R(6,7)                  1.4658         calculate D2E/DX2 analytically  !
 ! R16   R(6,11)                 1.3247         calculate D2E/DX2 analytically  !
 ! R17   R(7,8)                  1.349          calculate D2E/DX2 analytically  !
 ! R18   R(7,30)                 1.3863         calculate D2E/DX2 analytically  !
 ! R19   R(8,9)                  1.3305         calculate D2E/DX2 analytically  !
 ! R20   R(9,10)                 1.09           calculate D2E/DX2 analytically  !
 ! R21   R(9,32)                 1.3958         calculate D2E/DX2 analytically  !
 ! R22   R(11,33)                1.4545         calculate D2E/DX2 analytically  !
 ! R23   R(12,13)                1.3952         calculate D2E/DX2 analytically  !
 ! R24   R(12,16)                1.3943         calculate D2E/DX2 analytically  !
 ! R25   R(12,19)                1.0884         calculate D2E/DX2 analytically  !
 ! R26   R(13,14)                1.3939         calculate D2E/DX2 analytically  !
 ! R27   R(13,20)                1.0889         calculate D2E/DX2 analytically  !
 ! R28   R(14,21)                1.0912         calculate D2E/DX2 analytically  !
 ! R29   R(15,16)                1.3951         calculate D2E/DX2 analytically  !
 ! R30   R(15,22)                1.0908         calculate D2E/DX2 analytically  !
 ! R31   R(16,23)                1.089          calculate D2E/DX2 analytically  !
 ! R32   R(17,18)                1.4099         calculate D2E/DX2 analytically  !
 ! R33   R(17,24)                0.9679         calculate D2E/DX2 analytically  !
 ! R34   R(18,25)                1.1057         calculate D2E/DX2 analytically  !
 ! R35   R(18,26)                1.1033         calculate D2E/DX2 analytically  !
 ! R36   R(30,31)                1.3945         calculate D2E/DX2 analytically  !
 ! R37   R(30,35)                1.0875         calculate D2E/DX2 analytically  !
 ! R38   R(31,32)                1.3876         calculate D2E/DX2 analytically  !
 ! R39   R(31,36)                1.0879         calculate D2E/DX2 analytically  !
 ! R40   R(32,37)                1.0871         calculate D2E/DX2 analytically  !
 ! R41   R(33,34)                1.5392         calculate D2E/DX2 analytically  !
 ! R42   R(33,38)                1.0942         calculate D2E/DX2 analytically  !
 ! R43   R(33,39)                1.093          calculate D2E/DX2 analytically  !
 ! R44   R(34,40)                1.0969         calculate D2E/DX2 analytically  !
 ! R45   R(34,41)                1.0979         calculate D2E/DX2 analytically  !
 ! A1    A(2,1,4)               92.6572         calculate D2E/DX2 analytically  !
 ! A2    A(2,1,5)               97.8536         calculate D2E/DX2 analytically  !
 ! A3    A(3,1,4)               56.6037         calculate D2E/DX2 analytically  !
 ! A4    A(3,1,5)              133.8449         calculate D2E/DX2 analytically  !
 ! A5    A(3,1,8)              149.1376         calculate D2E/DX2 analytically  !
 ! A6    A(4,1,8)               93.2345         calculate D2E/DX2 analytically  !
 ! A7    A(5,1,8)               76.2533         calculate D2E/DX2 analytically  !
 ! A8    A(1,2,18)             111.3645         calculate D2E/DX2 analytically  !
 ! A9    A(1,2,27)             104.1921         calculate D2E/DX2 analytically  !
 ! A10   A(3,2,18)             119.1906         calculate D2E/DX2 analytically  !
 ! A11   A(3,2,27)             117.8708         calculate D2E/DX2 analytically  !
 ! A12   A(18,2,27)            115.7234         calculate D2E/DX2 analytically  !
 ! A13   A(1,3,28)             110.9759         calculate D2E/DX2 analytically  !
 ! A14   A(1,3,29)             121.7579         calculate D2E/DX2 analytically  !
 ! A15   A(2,3,28)             119.1914         calculate D2E/DX2 analytically  !
 ! A16   A(2,3,29)             118.002          calculate D2E/DX2 analytically  !
 ! A17   A(28,3,29)            114.7039         calculate D2E/DX2 analytically  !
 ! A18   A(1,4,14)             114.9766         calculate D2E/DX2 analytically  !
 ! A19   A(1,4,15)             117.8626         calculate D2E/DX2 analytically  !
 ! A20   A(14,4,15)            120.554          calculate D2E/DX2 analytically  !
 ! A21   A(1,5,6)              113.8711         calculate D2E/DX2 analytically  !
 ! A22   A(1,5,34)             138.5835         calculate D2E/DX2 analytically  !
 ! A23   A(6,5,34)             107.4984         calculate D2E/DX2 analytically  !
 ! A24   A(5,6,7)              122.5881         calculate D2E/DX2 analytically  !
 ! A25   A(5,6,11)             118.0753         calculate D2E/DX2 analytically  !
 ! A26   A(7,6,11)             119.3366         calculate D2E/DX2 analytically  !
 ! A27   A(6,7,8)              114.1034         calculate D2E/DX2 analytically  !
 ! A28   A(6,7,30)             122.7995         calculate D2E/DX2 analytically  !
 ! A29   A(8,7,30)             123.0969         calculate D2E/DX2 analytically  !
 ! A30   A(1,8,7)              113.1319         calculate D2E/DX2 analytically  !
 ! A31   A(1,8,9)              128.2909         calculate D2E/DX2 analytically  !
 ! A32   A(7,8,9)              118.5771         calculate D2E/DX2 analytically  !
 ! A33   A(8,9,10)             116.3596         calculate D2E/DX2 analytically  !
 ! A34   A(8,9,32)             122.2017         calculate D2E/DX2 analytically  !
 ! A35   A(10,9,32)            121.4385         calculate D2E/DX2 analytically  !
 ! A36   A(6,11,33)            106.5761         calculate D2E/DX2 analytically  !
 ! A37   A(13,12,16)           120.0132         calculate D2E/DX2 analytically  !
 ! A38   A(13,12,19)           119.9819         calculate D2E/DX2 analytically  !
 ! A39   A(16,12,19)           119.9975         calculate D2E/DX2 analytically  !
 ! A40   A(12,13,14)           120.1895         calculate D2E/DX2 analytically  !
 ! A41   A(12,13,20)           120.1932         calculate D2E/DX2 analytically  !
 ! A42   A(14,13,20)           119.6116         calculate D2E/DX2 analytically  !
 ! A43   A(4,14,13)            119.5153         calculate D2E/DX2 analytically  !
 ! A44   A(4,14,21)            120.5112         calculate D2E/DX2 analytically  !
 ! A45   A(13,14,21)           119.9729         calculate D2E/DX2 analytically  !
 ! A46   A(4,15,16)            119.4693         calculate D2E/DX2 analytically  !
 ! A47   A(4,15,22)            120.5181         calculate D2E/DX2 analytically  !
 ! A48   A(16,15,22)           120.0125         calculate D2E/DX2 analytically  !
 ! A49   A(12,16,15)           120.2357         calculate D2E/DX2 analytically  !
 ! A50   A(12,16,23)           120.2151         calculate D2E/DX2 analytically  !
 ! A51   A(15,16,23)           119.5466         calculate D2E/DX2 analytically  !
 ! A52   A(18,17,24)           110.3033         calculate D2E/DX2 analytically  !
 ! A53   A(2,18,17)            105.7723         calculate D2E/DX2 analytically  !
 ! A54   A(2,18,25)            109.7523         calculate D2E/DX2 analytically  !
 ! A55   A(2,18,26)            110.6292         calculate D2E/DX2 analytically  !
 ! A56   A(17,18,25)           111.5582         calculate D2E/DX2 analytically  !
 ! A57   A(17,18,26)           111.5463         calculate D2E/DX2 analytically  !
 ! A58   A(25,18,26)           107.6047         calculate D2E/DX2 analytically  !
 ! A59   A(7,30,31)            118.0236         calculate D2E/DX2 analytically  !
 ! A60   A(7,30,35)            120.0796         calculate D2E/DX2 analytically  !
 ! A61   A(31,30,35)           121.8968         calculate D2E/DX2 analytically  !
 ! A62   A(30,31,32)           119.0486         calculate D2E/DX2 analytically  !
 ! A63   A(30,31,36)           120.27           calculate D2E/DX2 analytically  !
 ! A64   A(32,31,36)           120.6814         calculate D2E/DX2 analytically  !
 ! A65   A(9,32,31)            119.0516         calculate D2E/DX2 analytically  !
 ! A66   A(9,32,37)            119.6661         calculate D2E/DX2 analytically  !
 ! A67   A(31,32,37)           121.2824         calculate D2E/DX2 analytically  !
 ! A68   A(11,33,34)           104.0846         calculate D2E/DX2 analytically  !
 ! A69   A(11,33,38)           107.1372         calculate D2E/DX2 analytically  !
 ! A70   A(11,33,39)           107.3707         calculate D2E/DX2 analytically  !
 ! A71   A(34,33,38)           113.8813         calculate D2E/DX2 analytically  !
 ! A72   A(34,33,39)           114.2874         calculate D2E/DX2 analytically  !
 ! A73   A(38,33,39)           109.4931         calculate D2E/DX2 analytically  !
 ! A74   A(5,34,33)            103.5316         calculate D2E/DX2 analytically  !
 ! A75   A(5,34,40)            110.1226         calculate D2E/DX2 analytically  !
 ! A76   A(5,34,41)            109.683          calculate D2E/DX2 analytically  !
 ! A77   A(33,34,40)           112.9744         calculate D2E/DX2 analytically  !
 ! A78   A(33,34,41)           112.697          calculate D2E/DX2 analytically  !
 ! A79   A(40,34,41)           107.776          calculate D2E/DX2 analytically  !
 ! A80   L(2,1,8,5,-1)         174.107          calculate D2E/DX2 analytically  !
 ! A81   L(4,1,5,3,-1)         190.4486         calculate D2E/DX2 analytically  !
 ! A82   L(2,1,8,5,-2)         180.3397         calculate D2E/DX2 analytically  !
 ! A83   L(4,1,5,3,-2)         178.4956         calculate D2E/DX2 analytically  !
 ! D1    D(4,1,2,18)          -107.6421         calculate D2E/DX2 analytically  !
 ! D2    D(4,1,2,27)           126.9319         calculate D2E/DX2 analytically  !
 ! D3    D(5,1,2,18)            72.1004         calculate D2E/DX2 analytically  !
 ! D4    D(5,1,2,27)           -53.3257         calculate D2E/DX2 analytically  !
 ! D5    D(18,2,8,7)            72.132          calculate D2E/DX2 analytically  !
 ! D6    D(18,2,8,9)          -107.4688         calculate D2E/DX2 analytically  !
 ! D7    D(27,2,8,7)           -51.6127         calculate D2E/DX2 analytically  !
 ! D8    D(27,2,8,9)           128.7865         calculate D2E/DX2 analytically  !
 ! D9    D(4,1,3,28)            79.4896         calculate D2E/DX2 analytically  !
 ! D10   D(4,1,3,29)           -60.3037         calculate D2E/DX2 analytically  !
 ! D11   D(5,1,3,28)           -99.006          calculate D2E/DX2 analytically  !
 ! D12   D(5,1,3,29)           121.2007         calculate D2E/DX2 analytically  !
 ! D13   D(8,1,3,28)            65.7741         calculate D2E/DX2 analytically  !
 ! D14   D(8,1,3,29)           -74.0192         calculate D2E/DX2 analytically  !
 ! D15   D(2,1,4,14)            98.8766         calculate D2E/DX2 analytically  !
 ! D16   D(2,1,4,15)          -109.4111         calculate D2E/DX2 analytically  !
 ! D17   D(3,1,4,14)           106.2308         calculate D2E/DX2 analytically  !
 ! D18   D(3,1,4,15)          -102.0569         calculate D2E/DX2 analytically  !
 ! D19   D(8,1,4,14)           -80.7665         calculate D2E/DX2 analytically  !
 ! D20   D(8,1,4,15)            70.9458         calculate D2E/DX2 analytically  !
 ! D21   D(14,4,5,6)           -80.2556         calculate D2E/DX2 analytically  !
 ! D22   D(14,4,5,34)          102.5403         calculate D2E/DX2 analytically  !
 ! D23   D(15,4,5,6)            66.4995         calculate D2E/DX2 analytically  !
 ! D24   D(15,4,5,34)         -110.7046         calculate D2E/DX2 analytically  !
 ! D25   D(2,1,5,6)            178.3902         calculate D2E/DX2 analytically  !
 ! D26   D(2,1,5,34)             1.3031         calculate D2E/DX2 analytically  !
 ! D27   D(3,1,5,6)            170.0814         calculate D2E/DX2 analytically  !
 ! D28   D(3,1,5,34)            -7.0058         calculate D2E/DX2 analytically  !
 ! D29   D(8,1,5,6)             -1.9494         calculate D2E/DX2 analytically  !
 ! D30   D(8,1,5,34)          -179.0366         calculate D2E/DX2 analytically  !
 ! D31   D(3,1,8,7)           -167.6268         calculate D2E/DX2 analytically  !
 ! D32   D(3,1,8,9)             12.4953         calculate D2E/DX2 analytically  !
 ! D33   D(4,1,8,7)           -179.0625         calculate D2E/DX2 analytically  !
 ! D34   D(4,1,8,9)              1.0596         calculate D2E/DX2 analytically  !
 ! D35   D(5,1,8,7)              1.133          calculate D2E/DX2 analytically  !
 ! D36   D(5,1,8,9)           -178.7448         calculate D2E/DX2 analytically  !
 ! D37   D(18,2,3,28)         -150.7152         calculate D2E/DX2 analytically  !
 ! D38   D(18,2,3,29)           -3.6503         calculate D2E/DX2 analytically  !
 ! D39   D(27,2,3,28)           -1.6407         calculate D2E/DX2 analytically  !
 ! D40   D(27,2,3,29)          145.4243         calculate D2E/DX2 analytically  !
 ! D41   D(1,2,18,17)          173.4195         calculate D2E/DX2 analytically  !
 ! D42   D(1,2,18,25)           52.9476         calculate D2E/DX2 analytically  !
 ! D43   D(1,2,18,26)          -65.6434         calculate D2E/DX2 analytically  !
 ! D44   D(3,2,18,17)           81.8657         calculate D2E/DX2 analytically  !
 ! D45   D(3,2,18,25)          -38.6062         calculate D2E/DX2 analytically  !
 ! D46   D(3,2,18,26)         -157.1971         calculate D2E/DX2 analytically  !
 ! D47   D(27,2,18,17)         -67.8505         calculate D2E/DX2 analytically  !
 ! D48   D(27,2,18,25)         171.6776         calculate D2E/DX2 analytically  !
 ! D49   D(27,2,18,26)          53.0867         calculate D2E/DX2 analytically  !
 ! D50   D(1,4,14,13)          149.0287         calculate D2E/DX2 analytically  !
 ! D51   D(1,4,14,21)          -31.2613         calculate D2E/DX2 analytically  !
 ! D52   D(15,4,14,13)          -1.8596         calculate D2E/DX2 analytically  !
 ! D53   D(15,4,14,21)         177.8504         calculate D2E/DX2 analytically  !
 ! D54   D(1,4,15,16)         -148.5465         calculate D2E/DX2 analytically  !
 ! D55   D(1,4,15,22)           31.539          calculate D2E/DX2 analytically  !
 ! D56   D(14,4,15,16)           1.5299         calculate D2E/DX2 analytically  !
 ! D57   D(14,4,15,22)        -178.3846         calculate D2E/DX2 analytically  !
 ! D58   D(1,5,6,7)              2.6476         calculate D2E/DX2 analytically  !
 ! D59   D(1,5,6,11)          -177.3434         calculate D2E/DX2 analytically  !
 ! D60   D(34,5,6,7)          -179.3724         calculate D2E/DX2 analytically  !
 ! D61   D(34,5,6,11)            0.6367         calculate D2E/DX2 analytically  !
 ! D62   D(1,5,34,33)          173.8411         calculate D2E/DX2 analytically  !
 ! D63   D(1,5,34,40)           52.7942         calculate D2E/DX2 analytically  !
 ! D64   D(1,5,34,41)          -65.6554         calculate D2E/DX2 analytically  !
 ! D65   D(6,5,34,33)           -3.366          calculate D2E/DX2 analytically  !
 ! D66   D(6,5,34,40)         -124.4129         calculate D2E/DX2 analytically  !
 ! D67   D(6,5,34,41)          117.1374         calculate D2E/DX2 analytically  !
 ! D68   D(5,6,7,8)             -1.6321         calculate D2E/DX2 analytically  !
 ! D69   D(5,6,7,30)           178.2709         calculate D2E/DX2 analytically  !
 ! D70   D(11,6,7,8)           178.3588         calculate D2E/DX2 analytically  !
 ! D71   D(11,6,7,30)           -1.7383         calculate D2E/DX2 analytically  !
 ! D72   D(5,6,11,33)            2.6118         calculate D2E/DX2 analytically  !
 ! D73   D(7,6,11,33)         -177.3794         calculate D2E/DX2 analytically  !
 ! D74   D(6,7,8,1)             -0.2486         calculate D2E/DX2 analytically  !
 ! D75   D(6,7,8,9)            179.6422         calculate D2E/DX2 analytically  !
 ! D76   D(30,7,8,1)           179.8487         calculate D2E/DX2 analytically  !
 ! D77   D(30,7,8,9)            -0.2605         calculate D2E/DX2 analytically  !
 ! D78   D(6,7,30,31)         -179.6654         calculate D2E/DX2 analytically  !
 ! D79   D(6,7,30,35)            0.2856         calculate D2E/DX2 analytically  !
 ! D80   D(8,7,30,31)            0.2289         calculate D2E/DX2 analytically  !
 ! D81   D(8,7,30,35)         -179.8201         calculate D2E/DX2 analytically  !
 ! D82   D(1,8,9,10)            -0.2286         calculate D2E/DX2 analytically  !
 ! D83   D(1,8,9,32)           179.9657         calculate D2E/DX2 analytically  !
 ! D84   D(7,8,9,10)           179.8993         calculate D2E/DX2 analytically  !
 ! D85   D(7,8,9,32)             0.0936         calculate D2E/DX2 analytically  !
 ! D86   D(8,9,32,31)            0.0943         calculate D2E/DX2 analytically  !
 ! D87   D(8,9,32,37)         -179.9663         calculate D2E/DX2 analytically  !
 ! D88   D(10,9,32,31)        -179.7017         calculate D2E/DX2 analytically  !
 ! D89   D(10,9,32,37)           0.2377         calculate D2E/DX2 analytically  !
 ! D90   D(6,11,33,34)          -4.4133         calculate D2E/DX2 analytically  !
 ! D91   D(6,11,33,38)         116.5272         calculate D2E/DX2 analytically  !
 ! D92   D(6,11,33,39)        -125.9344         calculate D2E/DX2 analytically  !
 ! D93   D(16,12,13,14)         -0.1653         calculate D2E/DX2 analytically  !
 ! D94   D(16,12,13,20)       -179.2943         calculate D2E/DX2 analytically  !
 ! D95   D(19,12,13,14)        178.8462         calculate D2E/DX2 analytically  !
 ! D96   D(19,12,13,20)         -0.2827         calculate D2E/DX2 analytically  !
 ! D97   D(13,12,16,15)         -0.1674         calculate D2E/DX2 analytically  !
 ! D98   D(13,12,16,23)        179.2406         calculate D2E/DX2 analytically  !
 ! D99   D(19,12,16,15)       -179.1788         calculate D2E/DX2 analytically  !
 ! D100  D(19,12,16,23)          0.2292         calculate D2E/DX2 analytically  !
 ! D101  D(12,13,14,4)           1.1694         calculate D2E/DX2 analytically  !
 ! D102  D(12,13,14,21)       -178.5422         calculate D2E/DX2 analytically  !
 ! D103  D(20,13,14,4)        -179.6966         calculate D2E/DX2 analytically  !
 ! D104  D(20,13,14,21)          0.5918         calculate D2E/DX2 analytically  !
 ! D105  D(4,15,16,12)          -0.5099         calculate D2E/DX2 analytically  !
 ! D106  D(4,15,16,23)        -179.9219         calculate D2E/DX2 analytically  !
 ! D107  D(22,15,16,12)        179.405          calculate D2E/DX2 analytically  !
 ! D108  D(22,15,16,23)         -0.007          calculate D2E/DX2 analytically  !
 ! D109  D(24,17,18,2)         176.9405         calculate D2E/DX2 analytically  !
 ! D110  D(24,17,18,25)        -63.7726         calculate D2E/DX2 analytically  !
 ! D111  D(24,17,18,26)         56.6004         calculate D2E/DX2 analytically  !
 ! D112  D(7,30,31,32)          -0.0308         calculate D2E/DX2 analytically  !
 ! D113  D(7,30,31,36)         179.9456         calculate D2E/DX2 analytically  !
 ! D114  D(35,30,31,32)       -179.9808         calculate D2E/DX2 analytically  !
 ! D115  D(35,30,31,36)         -0.0045         calculate D2E/DX2 analytically  !
 ! D116  D(30,31,32,9)          -0.1219         calculate D2E/DX2 analytically  !
 ! D117  D(30,31,32,37)        179.9397         calculate D2E/DX2 analytically  !
 ! D118  D(36,31,32,9)         179.9019         calculate D2E/DX2 analytically  !
 ! D119  D(36,31,32,37)         -0.0366         calculate D2E/DX2 analytically  !
 ! D120  D(11,33,34,5)           4.6591         calculate D2E/DX2 analytically  !
 ! D121  D(11,33,34,40)        123.7611         calculate D2E/DX2 analytically  !
 ! D122  D(11,33,34,41)       -113.7763         calculate D2E/DX2 analytically  !
 ! D123  D(38,33,34,5)        -111.6569         calculate D2E/DX2 analytically  !
 ! D124  D(38,33,34,40)          7.4451         calculate D2E/DX2 analytically  !
 ! D125  D(38,33,34,41)        129.9076         calculate D2E/DX2 analytically  !
 ! D126  D(39,33,34,5)         121.4614         calculate D2E/DX2 analytically  !
 ! D127  D(39,33,34,40)       -119.4366         calculate D2E/DX2 analytically  !
 ! D128  D(39,33,34,41)          3.026          calculate D2E/DX2 analytically  !
 --------------------------------------------------------------------------------
 Trust Radius=3.00D-01 FncErr=1.00D-07 GrdErr=1.00D-07
 Number of steps in this run=      2 maximum allowed number of steps=      2.
 GradGradGradGradGradGradGradGradGradGradGradGradGradGradGradGradGradGrad

 Leave Link  103 at Fri Jun  3 18:35:52 2016, MaxMem=   268435456 cpu:         0.1
 (Enter /afs/crc.nd.edu/x86_64_linux/gaussian/09D01/pgi12.8/g09/l202.exe)
                          Input orientation:                          
 ---------------------------------------------------------------------
 Center     Atomic      Atomic             Coordinates (Angstroms)
 Number     Number       Type             X           Y           Z
 ---------------------------------------------------------------------
      1         46           0       -0.113914    0.575740    0.179002
      2          6           0       -0.464039    2.623855    0.403509
      3          6           0       -1.773181    2.150023    0.638867
      4          6           0       -2.142980    0.129888    0.185426
      5          7           0        2.035802    0.649602    0.120667
      6          6           0        2.593561   -0.504492    0.016317
      7          6           0        1.823203   -1.744925   -0.112328
      8          7           0        0.486135   -1.569325   -0.076287
      9          6           0       -0.299336   -2.636879   -0.192836
     10          1           0       -1.373282   -2.453773   -0.157212
     11          8           0        3.917052   -0.560573    0.027037
     12          6           0       -4.293934   -1.611391   -0.120168
     13          6           0       -3.779316   -0.937910   -1.228343
     14          6           0       -2.710460   -0.055798   -1.078374
     15          6           0       -2.662584   -0.530302    1.300863
     16          6           0       -3.737010   -1.405828    1.141410
     17          8           0       -0.589990    4.698850   -0.636587
     18          6           0       -0.172309    3.372269   -0.868191
     19          1           0       -5.140631   -2.285065   -0.238021
     20          1           0       -4.219393   -1.087508   -2.213088
     21          1           0       -2.326147    0.487100   -1.943458
     22          1           0       -2.235935   -0.364801    2.291030
     23          1           0       -4.144035   -1.920366    2.010616
     24          1           0       -0.386785    5.253626   -1.403231
     25          1           0       -0.726045    2.912666   -1.707688
     26          1           0        0.902877    3.322470   -1.110613
     27          1           0        0.141802    2.906305    1.270870
     28          1           0       -2.127114    2.055024    1.663755
     29          1           0       -2.545763    2.398357   -0.088651
     30          6           0        2.419779   -2.987492   -0.260050
     31          6           0        1.590588   -4.102188   -0.381004
     32          6           0        0.214760   -3.925156   -0.348359
     33          6           0        4.388458    0.800738    0.227704
     34          6           0        3.103495    1.647902    0.214217
     35          1           0        3.503749   -3.072795   -0.279843
     36          1           0        2.019902   -5.094730   -0.499499
     37          1           0       -0.465229   -4.768361   -0.440368
     38          1           0        4.921606    0.819790    1.183050
     39          1           0        5.085131    1.027719   -0.583367
     40          1           0        2.978319    2.250346    1.122265
     41          1           0        3.052213    2.326057   -0.647658
 ---------------------------------------------------------------------
                    Distance matrix (angstroms):
                    1          2          3          4          5
     1  Pd   0.000000
     2  C    2.089920   0.000000
     3  C    2.333026   1.412007   0.000000
     4  C    2.077482   3.014345   2.103165   0.000000
     5  N    2.151775   3.197949   4.126517   4.211474   0.000000
     6  C    2.919552   4.391513   5.148053   4.781825   1.286047
     7  C    3.036903   4.958205   5.354333   4.397065   2.415211
     8  N    2.241994   4.326176   4.410159   3.141348   2.713650
     9  C    3.239377   5.296987   5.077241   3.346207   4.043774
    10  H    3.298029   5.188780   4.689200   2.717561   4.618442
    11  O    4.190822   5.429205   6.332489   6.101296   2.238837
    12  C    4.727115   5.734077   4.591140   2.784249   6.725745
    13  C    4.207960   5.132268   4.128726   2.411749   6.177023
    14  C    2.953285   3.797753   2.948399   1.397750   4.945937
    15  C    2.996268   3.948108   2.900589   1.396438   4.985967
    16  C    4.240243   5.243584   4.093073   2.411070   6.212251
    17  O    4.229879   2.324493   3.085976   4.895191   4.885144
    18  C    2.986737   1.504144   2.515532   3.937853   3.642321
    19  H    5.798793   6.810255   5.637256   3.872625   7.761580
    20  H    5.034228   5.892664   4.959759   3.398002   6.898655
    21  H    3.067029   3.679867   3.120815   2.166402   4.828418
    22  H    3.138192   3.954038   3.044359   2.164931   4.897675
    23  H    5.082049   6.064248   4.906191   3.396922   6.954641
    24  H    4.945760   3.191547   3.965427   5.644532   5.421091
    25  H    3.065212   2.146907   2.680380   3.651771   4.011500
    26  H    3.200234   2.156174   3.405378   4.598863   3.153378
    27  H    2.586329   1.095051   2.153729   3.755916   3.162738
    28  H    2.906157   2.162778   1.088434   2.427314   4.656844
    29  H    3.050813   2.150964   1.089878   2.320195   4.908431
    30  C    4.394199   6.343811   6.692012   5.543940   3.677069
    31  C    5.010184   7.076483   7.172532   5.671934   4.798896
    32  C    4.543589   6.626886   6.467946   4.720937   4.946170
    33  C    4.508253   5.186655   6.321030   6.565935   2.359934
    34  C    3.391532   3.703460   4.920815   5.461748   1.464692
    35  H    5.158472   6.975825   7.481166   6.508395   4.021382
    36  H    6.096537   8.158551   8.256501   6.715307   5.777735
    37  H    5.391331   7.440227   7.123168   5.215296   5.993683
    38  H    5.140440   5.733019   6.847322   7.167955   3.079851
    39  H    5.274046   5.857889   7.056193   7.324120   3.152308
    40  H    3.640873   3.536376   4.777080   5.621540   2.110431
    41  H    3.710976   3.682074   4.997056   5.701510   2.105687
                    6          7          8          9         10
     6  C    0.000000
     7  C    1.465836   0.000000
     8  N    2.362983   1.349031   0.000000
     9  C    3.599954   2.303743   1.330496   0.000000
    10  H    4.423308   3.274446   2.060638   1.090026   0.000000
    11  O    1.324723   2.409630   3.577632   4.705031   5.621903
    12  C    6.977208   6.118599   4.780455   4.124769   3.039932
    13  C    6.507733   5.769313   4.463181   4.008620   3.038776
    14  C    5.434364   4.933609   3.676026   3.641384   2.896010
    15  C    5.410895   4.857438   3.590341   3.500535   2.736425
    16  C    6.492639   5.709887   4.398235   3.887583   2.893409
    17  O    6.134823   6.900767   6.384513   7.354884   7.211336
    18  C    4.843724   5.544282   5.047773   6.048313   5.990875
    19  H    7.940582   6.985880   5.674411   4.854272   3.771990
    20  H    7.192114   6.431046   5.190382   4.674272   3.767447
    21  H    5.387717   5.054906   3.952738   4.114837   3.570345
    22  H    5.340211   4.915025   3.803253   3.883600   3.331946
    23  H    7.167784   6.336055   5.090862   4.488909   3.558240
    24  H    6.637281   7.451858   7.005386   7.983281   7.869546
    25  H    5.066452   5.544094   4.921289   5.768388   5.623305
    26  H    4.332899   5.246147   5.017286   6.148289   6.281310
    27  H    4.383897   5.135590   4.686647   5.750123   5.750246
    28  H    5.616933   5.761864   4.795073   5.366717   4.920714
    29  H    5.903405   6.021229   4.993502   5.514607   4.992252
    30  C    2.504370   1.386254   2.404983   2.742450   3.831806
    31  C    3.755960   2.383901   2.779939   2.398822   3.398805
    32  C    4.182419   2.719597   2.386966   1.395758   2.173335
    33  C    2.229341   3.629952   4.575776   5.828333   6.628548
    34  C    2.220810   3.641023   4.157585   5.486738   6.083028
    35  H    2.740864   2.148380   3.377551   3.828975   4.917689
    36  H    4.654615   3.377838   3.867820   3.393220   4.313411
    37  H    5.267384   3.806008   3.357302   2.152210   2.502410
    38  H    2.921435   4.225620   5.192995   6.410916   7.220673
    39  H    2.985836   4.306925   5.305896   6.524896   7.349387
    40  H    2.993375   4.338284   4.715655   6.029716   6.534695
    41  H    2.943337   4.286016   4.699492   6.005870   6.532406
                   11         12         13         14         15
    11  O    0.000000
    12  C    8.279262   0.000000
    13  C    7.807204   1.395156   0.000000
    14  C    6.738001   2.417730   1.393939   0.000000
    15  C    6.701878   2.418550   2.794658   2.426564   0.000000
    16  C    7.780806   1.394274   2.415878   2.793533   1.395120
    17  O    6.958115   7.335192   6.503464   5.224772   5.949235
    18  C    5.743827   6.510314   5.631860   4.270600   5.112370
    19  H    9.224194   1.088404   2.156095   3.403169   3.404126
    20  H    8.455624   2.158778   1.088931   2.151484   3.883553
    21  H    6.630083   3.405912   2.157253   1.091240   3.416711
    22  H    6.559210   3.406351   3.885417   3.416657   1.090804
    23  H    8.412179   2.158281   3.404276   3.882475   2.151911
    24  H    7.373845   8.002533   7.062222   5.804738   6.778290
    25  H    6.052355   5.976382   4.937526   3.625702   4.965439
    26  H    5.045544   7.234003   6.331479   4.946709   5.776814
    27  H    5.274360   6.482308   6.033177   4.735863   4.435735
    28  H    6.786172   4.617368   4.477907   3.509292   2.665020
    29  H    7.108912   4.374377   3.735135   2.651330   3.243677
    30  C    2.866040   6.854718   6.600542   5.965219   5.857017
    31  C    4.256991   6.395287   6.290191   5.946311   5.803147
    32  C    5.016803   5.072860   5.064647   4.905280   4.745954
    33  C    1.454529   9.017943   8.476762   7.268709   7.255380
    34  C    2.360990   8.090535   7.492695   6.194793   6.258837
    35  H    2.564421   7.935053   7.648557   6.953871   6.854675
    36  H    4.943178   7.220947   7.172259   6.935580   6.782403
    37  H    6.093302   4.972722   5.126054   5.258932   5.081476
    38  H    2.061770   9.619521   9.198389   8.008066   7.704321
    39  H    2.063897   9.754297   9.102643   7.886082   8.124337
    40  H    3.159432   8.327204   7.833005   6.520991   6.291558
    41  H    3.088007   8.351504   7.593449   6.250372   6.679404
                   16         17         18         19         20
    16  C    0.000000
    17  O    7.094512   0.000000
    18  C    6.290929   1.409935   0.000000
    19  H    2.155468   8.345194   7.555578   0.000000
    20  H    3.403921   7.009984   6.170677   2.486706   0.000000
    21  H    3.884600   4.739303   3.757581   4.302875   2.477191
    22  H    2.158377   6.076236   5.310830   4.303577   4.974284
    23  H    1.089008   7.965735   7.216240   2.486479   4.305695
    24  H    7.877025   0.967890   1.967683   8.988250   7.453506
    25  H    5.986038   2.087157   1.105718   6.976023   5.334820
    26  H    6.996924   2.085132   1.103301   8.290347   6.848431
    27  H    5.801416   2.717928   2.211645   7.558517   6.863566
    28  H    3.852545   3.826767   3.459356   5.615551   5.411382
    29  H    4.171803   3.068803   2.681319   5.356314   4.411976
    30  C    6.509362   8.263193   6.894586   7.593002   7.176552
    31  C    6.162093   9.070751   7.694976   6.973642   6.797110
    32  C    4.917613   8.666267   7.326149   5.601989   5.584906
    33  C    8.469180   6.381789   5.349238  10.027094   9.144290
    34  C    7.548341   4.865592   3.856934   9.145401   8.185290
    35  H    7.564875   8.791157   7.443010   8.680298   8.205226
    36  H    7.031545  10.136299   8.753959   7.696481   7.610718
    37  H    4.951081   9.470066   8.157124   5.297838   5.548420
    38  H    8.940175   6.981108   6.055634  10.625826   9.936267
    39  H    9.312742   6.759219   5.763568  10.754534   9.680101
    40  H    7.646150   4.671356   3.891926   9.398813   8.606563
    41  H    7.951181   4.346943   3.397166   9.410258   8.184086
                   21         22         23         24         25
    21  H    0.000000
    22  H    4.320273   0.000000
    23  H    4.973460   2.477753   0.000000
    24  H    5.174238   6.973782   8.788483   0.000000
    25  H    2.915353   5.386213   6.990467   2.384929   0.000000
    26  H    4.377162   5.917709   7.918378   2.340560   1.782645
    27  H    4.719664   4.170670   6.497104   3.597241   3.102420
    28  H    3.938271   2.502172   4.471242   4.760904   3.750356
    29  H    2.672348   3.659770   5.060905   3.813381   2.489411
    30  C    6.118044   5.921333   7.026972   8.780643   6.841325
    31  C    6.232467   5.979139   6.585294   9.616975   7.505668
    32  C    5.335593   5.064426   5.346312   9.258761   7.034820
    33  C    7.063868   7.035508   9.131627   6.729867   5.862092
    34  C    5.956847   6.072366   8.275643   5.272517   4.467518
    35  H    7.030516   6.847378   8.066158   9.258917   7.466970
    36  H    7.220111   6.947765   7.373696  10.662897   8.550926
    37  H    5.774267   5.476064   5.258518  10.068440   7.789242
    38  H    7.900358   7.339023   9.506795   7.384224   6.680752
    39  H    7.554414   7.987445  10.029828   6.962208   6.211835
    40  H    6.375348   5.949239   8.301321   5.169309   4.708462
    41  H    5.829890   6.621262   8.768382   4.579111   3.967746
                   26         27         28         29         30
    26  H    0.000000
    27  H    2.534540   0.000000
    28  H    4.299347   2.454998   0.000000
    29  H    3.713692   3.054392   1.834140   0.000000
    30  C    6.545232   6.501518   7.057069   7.327575   0.000000
    31  C    7.492050   7.344837   7.477540   7.710509   1.394537
    32  C    7.320015   7.021117   6.730195   6.904691   2.397732
    33  C    4.505497   4.853421   6.788826   7.122913   4.297009
    34  C    3.066280   3.386993   5.442994   5.706928   4.709488
    35  H    6.953713   7.032569   7.859944   8.158839   1.087502
    36  H    8.512959   8.407023   8.543793   8.784103   2.158168
    37  H    8.233011   7.886527   7.331287   7.470888   3.395184
    38  H    5.260653   5.216108   7.172261   7.737615   4.778815
    39  H    4.799492   5.603908   7.623739   7.768780   4.830172
    40  H    3.231510   2.915167   5.137783   5.657182   5.445890
    41  H    2.413879   3.533827   5.678162   5.626283   5.365074
                   31         32         33         34         35
    31  C    0.000000
    32  C    1.387554   0.000000
    33  C    5.677788   6.331325   0.000000
    34  C    5.975509   6.302401   1.539155   0.000000
    35  H    2.174873   3.398332   4.005567   4.763326   0.000000
    36  H    1.087885   2.156220   6.394953   6.866342   2.517593
    37  H    2.161872   1.087127   7.417510   7.371072   4.318970
    38  H    6.145552   6.856684   1.094210   2.220345   4.393471
    39  H    6.210372   6.950303   1.093028   2.224331   4.405350
    40  H    6.673852   6.923642   2.211356   1.096887   5.529721
    41  H    6.597711   6.871564   2.208712   1.097886   5.430172
                   36         37         38         39         40
    36  H    0.000000
    37  H    2.507168   0.000000
    38  H    6.799441   7.929748   0.000000
    39  H    6.847412   8.026299   1.786114   0.000000
    40  H    7.582798   7.972584   2.413824   2.973660   0.000000
    41  H    7.493711   7.921245   3.019099   2.413000   1.773083
                   41
    41  H    0.000000
 Stoichiometry    C17H19N2O2Pd(1+)
 Framework group  C1[X(C17H19N2O2Pd)]
 Deg. of freedom   117
 Full point group                 C1      NOp   1
 RotChk:  IX=0 Diff= 4.04D-16
 Largest Abelian subgroup         C1      NOp   1
 Largest concise Abelian subgroup C1      NOp   1
                         Standard orientation:                         
 ---------------------------------------------------------------------
 Center     Atomic      Atomic             Coordinates (Angstroms)
 Number     Number       Type             X           Y           Z
 ---------------------------------------------------------------------
      1         46           0       -0.145745    0.571083    0.184218
      2          6           0       -0.599330    2.598486    0.411510
      3          6           0       -1.882573    2.058469    0.646951
      4          6           0       -2.149538    0.022722    0.191136
      5          7           0        1.997408    0.754129    0.124852
      6          6           0        2.613013   -0.370010    0.018744
      7          6           0        1.906588   -1.647815   -0.111074
      8          7           0        0.562348   -1.540411   -0.074111
      9          6           0       -0.167946   -2.646343   -0.191606
     10          1           0       -1.249786   -2.518075   -0.155187
     11          8           0        3.937651   -0.358798    0.028701
     12          6           0       -4.209437   -1.825197   -0.115546
     13          6           0       -3.730347   -1.125067   -1.223133
     14          6           0       -2.707594   -0.189982   -1.072602
     15          6           0       -2.634280   -0.664398    1.306004
     16          6           0       -3.662934   -1.593175    1.146001
     17          8           0       -0.831138    4.665695   -0.625882
     18          6           0       -0.346742    3.362333   -0.859390
     19          1           0       -5.020888   -2.540868   -0.233812
     20          1           0       -4.162834   -1.295604   -2.207837
     21          1           0       -2.351864    0.372813   -1.937196
     22          1           0       -2.216007   -0.478667    2.296158
     23          1           0       -4.042786   -2.128806    2.014765
     24          1           0       -0.656827    5.231030   -1.391926
     25          1           0       -0.876908    2.876237   -1.699180
     26          1           0        0.729443    3.367520   -1.102438
     27          1           0       -0.008111    2.910270    1.278913
     28          1           0       -2.230622    1.944339    1.671902
     29          1           0       -2.667199    2.268139   -0.079847
     30          6           0        2.565429   -2.858288   -0.260687
     31          6           0        1.793864   -4.013516   -0.382624
     32          6           0        0.410839   -3.906646   -0.349035
     33          6           0        4.339411    1.024451    0.230851
     34          6           0        3.013064    1.805261    0.219112
     35          1           0        3.652322   -2.888389   -0.281155
     36          1           0        2.272976   -4.982820   -0.502605
     37          1           0       -0.225491   -4.783191   -0.441760
     38          1           0        4.871464    1.069376    1.185941
     39          1           0        5.023179    1.287538   -0.580295
     40          1           0        2.857979    2.399440    1.127991
     41          1           0        2.926893    2.481006   -0.641873
 ---------------------------------------------------------------------
 Rotational constants (GHZ):      0.2944096      0.2498567      0.1455194
 Leave Link  202 at Fri Jun  3 18:35:52 2016, MaxMem=   268435456 cpu:         0.1
 (Enter /afs/crc.nd.edu/x86_64_linux/gaussian/09D01/pgi12.8/g09/l301.exe)
 Basis read from chk: "/scratch/Gau-2844.chk" (5D, 7F)
 Pseudo-potential data read from chk file.
 There are   461 symmetry adapted cartesian basis functions of A   symmetry.
 There are   438 symmetry adapted basis functions of A   symmetry.
   438 basis functions,   797 primitive gaussians,   461 cartesian basis functions
    84 alpha electrons       84 beta electrons
       nuclear repulsion energy      2015.9055110287 Hartrees.
 IExCor= 4235 DFT=T Ex+Corr=M06 ExCW=0 ScaHFX=  0.270000
 ScaDFX=  1.000000  1.000000  1.000000  1.000000 ScalE2=  1.000000  1.000000
 IRadAn=      5 IRanWt=     -1 IRanGd=            0 ICorTp=0 IEmpDi=131
 NAtoms=   41 NActive=   41 NUniq=   41 SFac= 1.00D+00 NAtFMM=   60 NAOKFM=F Big=F
 Integral buffers will be    131072 words long.
 Raffenetti 2 integral format.
 Two-electron integral symmetry is turned on.
 R6Disp:  Grimme-D3 Dispersion energy=       -0.0081607356 Hartrees.
 Nuclear repulsion after empirical dispersion term =     2015.8973502931 Hartrees.
 No density basis found on file 20724.
 Leave Link  301 at Fri Jun  3 18:35:52 2016, MaxMem=   268435456 cpu:         0.8
 (Enter /afs/crc.nd.edu/x86_64_linux/gaussian/09D01/pgi12.8/g09/l302.exe)
 NPDir=0 NMtPBC=     1 NCelOv=     1 NCel=       1 NClECP=     1 NCelD=      1
         NCelK=      1 NCelE2=     1 NClLst=     1 CellRange=     0.0.
 One-electron integrals computed using PRISM.
   1 Symmetry operations used in ECPInt.
 ECPInt:  NShTT=   11476 NPrTT=   60133 LenC2=   10429 LenP2D=   34059.
 LDataN:  DoStor=T MaxTD1= 5 Len=  102
 NBasis=   438 RedAO= T EigKep=  2.02D-06  NBF=   438
 NBsUse=   437 1.00D-06 EigRej=  5.81D-07 NBFU=   437
 Precomputing XC quadrature grid using
 IXCGrd= 4 IRadAn=           5 IRanWt=          -1 IRanGd=           0 AccXCQ= 0.00D+00.
 Defaulting to unpruned grid for atomic number  46.
 Generated NRdTot=       0 NPtTot=           0 NUsed=           0 NTot=          32
 NSgBfM=   461   461   461   461   461 MxSgAt=    41 MxSgA2=    41.
 Leave Link  302 at Fri Jun  3 18:35:55 2016, MaxMem=   268435456 cpu:        21.1
 (Enter /afs/crc.nd.edu/x86_64_linux/gaussian/09D01/pgi12.8/g09/l303.exe)
 DipDrv:  MaxL=1.
 Leave Link  303 at Fri Jun  3 18:35:55 2016, MaxMem=   268435456 cpu:         1.0
 (Enter /afs/crc.nd.edu/x86_64_linux/gaussian/09D01/pgi12.8/g09/l401.exe)
 Initial guess from the checkpoint file:  "/scratch/Gau-2844.chk"
 B after Tr=     0.000000    0.000000    0.000000
         Rot=    1.000000    0.000000    0.000000    0.000000 Ang=   0.00 deg.
 Guess basis will be translated and rotated to current coordinates.
 JPrj=2 DoOrth=T DoCkMO=T.
 Leave Link  401 at Fri Jun  3 18:35:57 2016, MaxMem=   268435456 cpu:         8.4
 (Enter /afs/crc.nd.edu/x86_64_linux/gaussian/09D01/pgi12.8/g09/l502.exe)
 Closed shell SCF:
 Using DIIS extrapolation, IDIIS=  1040.
 Integral symmetry usage will be decided dynamically.
 IVT=      663238 IEndB=      663238 NGot=   268435456 MDV=   268001841
 LenX=   268001841 LenY=   267788859
 Requested convergence on RMS density matrix=1.00D-08 within 128 cycles.
 Requested convergence on MAX density matrix=1.00D-06.
 Requested convergence on             energy=1.00D-06.
 No special actions if energy rises.
 Fock matrices will be formed incrementally for  20 cycles.

 Cycle   1  Pass 1  IDiag  1:
 FoFJK:  IHMeth= 1 ICntrl=       0 DoSepK=F KAlg= 0 I1Cent=   0 FoldK=F
 IRaf= 830000000 NMat=   1 IRICut=       1 DoRegI=T DoRafI=F ISym2E= 0.
 FoFCou: FMM=F IPFlag=           0 FMFlag=      100000 FMFlg1=           0
         NFxFlg=           0 DoJE=F BraDBF=F KetDBF=F FulRan=T
         wScrn=  0.000000 ICntrl=       0 IOpCl=  0 I1Cent=           0 NGrid=           0
         NMat0=    1 NMatS0=      1 NMatT0=    0 NMatD0=    1 NMtDS0=    0 NMtDT0=    0
 Symmetry not used in FoFCou.
 Defaulting to unpruned grid for atomic number  46.
 Defaulting to unpruned grid for atomic number  46.
 Defaulting to unpruned grid for atomic number  46.
 Defaulting to unpruned grid for atomic number  46.
 Defaulting to unpruned grid for atomic number  46.
 Defaulting to unpruned grid for atomic number  46.
 Defaulting to unpruned grid for atomic number  46.
 Defaulting to unpruned grid for atomic number  46.
 E= -1045.08708860678    
 DIIS: error= 2.51D-09 at cycle   1 NSaved=   1.
 NSaved= 1 IEnMin= 1 EnMin= -1045.08708860678     IErMin= 1 ErrMin= 2.51D-09
 ErrMax= 2.51D-09  0.00D+00 EMaxC= 1.00D-01 BMatC= 5.43D-15 BMatP= 5.43D-15
 IDIUse=1 WtCom= 1.00D+00 WtEn= 0.00D+00
 Coeff-Com:  0.100D+01
 Coeff:      0.100D+01
 Gap=     0.158 Goal=   None    Shift=    0.000
 RMSDP=1.14D-08 MaxDP=8.69D-07              OVMax= 6.14D-08

 Cycle   2  Pass 1  IDiag  1:
 RMSU=  1.13D-08    CP:  1.00D+00
 E= -1045.08708860688     Delta-E=       -0.000000000098 Rises=F Damp=F
 DIIS: error= 4.83D-09 at cycle   2 NSaved=   2.
 NSaved= 2 IEnMin= 2 EnMin= -1045.08708860688     IErMin= 1 ErrMin= 2.51D-09
 ErrMax= 4.83D-09  0.00D+00 EMaxC= 1.00D-01 BMatC= 1.61D-14 BMatP= 5.43D-15
 IDIUse=1 WtCom= 1.00D+00 WtEn= 0.00D+00
 Coeff-Com:  0.635D+00 0.365D+00
 Coeff:      0.635D+00 0.365D+00
 Gap=     0.158 Goal=   None    Shift=    0.000
 RMSDP=2.79D-09 MaxDP=2.94D-07 DE=-9.78D-11 OVMax= 4.21D-08

 SCF Done:  E(RM06) =  -1045.08708861     A.U. after    2 cycles
            NFock=  2  Conv=0.28D-08     -V/T= 2.0904
 KE= 9.584089528679D+02 PE=-6.417112286175D+03 EE= 2.397718894407D+03
 Leave Link  502 at Fri Jun  3 18:37:54 2016, MaxMem=   268435456 cpu:       934.5
 (Enter /afs/crc.nd.edu/x86_64_linux/gaussian/09D01/pgi12.8/g09/l801.exe)
 DoSCS=F DFT=T ScalE2(SS,OS)=  1.000000  1.000000
 Range of M.O.s used for correlation:     1   437
 NBasis=   438 NAE=    84 NBE=    84 NFC=     0 NFV=     0
 NROrb=    437 NOA=    84 NOB=    84 NVA=   353 NVB=   353

 **** Warning!!: The largest alpha MO coefficient is  0.10273978D+03

 Leave Link  801 at Fri Jun  3 18:37:54 2016, MaxMem=   268435456 cpu:         0.2
 (Enter /afs/crc.nd.edu/x86_64_linux/gaussian/09D01/pgi12.8/g09/l1101.exe)
 Using compressed storage, NAtomX=    41.
 Will process     42 centers per pass.
   1 Symmetry operations used in ECPInt.
 ECPInt:  NShTT=   11476 NPrTT=   60133 LenC2=   10429 LenP2D=   34059.
 LDataN:  DoStor=T MaxTD1= 6 Len=  172
 Number of processors reduced to   4 by ecpmxn.
 R6Disp: Adding Grimme-D3 dispersion energy 1st derivatives to the gradient.
 Leave Link 1101 at Fri Jun  3 18:38:07 2016, MaxMem=   268435456 cpu:        84.9
 (Enter /afs/crc.nd.edu/x86_64_linux/gaussian/09D01/pgi12.8/g09/l1102.exe)
 Symmetrizing basis deriv contribution to polar:
 IMax=3 JMax=2 DiffMx= 0.00D+00
 Leave Link 1102 at Fri Jun  3 18:38:07 2016, MaxMem=   268435456 cpu:         0.7
 (Enter /afs/crc.nd.edu/x86_64_linux/gaussian/09D01/pgi12.8/g09/l1110.exe)
 Forming Gx(P) for the SCF density, NAtomX=    41.
 Integral derivatives from FoFJK, PRISM(SPDF).
 Do as many integral derivatives as possible in FoFJK.
 G2DrvN: MDV=     268435024.
 G2DrvN: will do    42 centers at a time, making    1 passes.
 Calling FoFCou, ICntrl=  3107 FMM=F I1Cent=   0 AccDes= 0.00D+00.
 FoFJK:  IHMeth= 1 ICntrl=    3107 DoSepK=F KAlg= 0 I1Cent=   0 FoldK=F
 IRaf=         0 NMat=   1 IRICut=       1 DoRegI=T DoRafI=F ISym2E= 0.
 FoFCou: FMM=F IPFlag=           0 FMFlag=      100000 FMFlg1=           0
         NFxFlg=           0 DoJE=F BraDBF=F KetDBF=F FulRan=T
         wScrn=  0.000000 ICntrl=    3107 IOpCl=  0 I1Cent=           0 NGrid=           0
         NMat0=    1 NMatS0=      1 NMatT0=    0 NMatD0=    1 NMtDS0=    0 NMtDT0=    0
 Symmetry not used in FoFCou.
 Defaulting to unpruned grid for atomic number  46.
 Defaulting to unpruned grid for atomic number  46.
 Defaulting to unpruned grid for atomic number  46.
 Defaulting to unpruned grid for atomic number  46.
 Defaulting to unpruned grid for atomic number  46.
 Defaulting to unpruned grid for atomic number  46.
 Defaulting to unpruned grid for atomic number  46.
 Defaulting to unpruned grid for atomic number  46.
 End of G2Drv F.D. properties file   721 does not exist.
 End of G2Drv F.D. properties file   722 does not exist.
 End of G2Drv F.D. properties file   788 does not exist.
 Leave Link 1110 at Fri Jun  3 19:28:38 2016, MaxMem=   268435456 cpu:     24218.9
 (Enter /afs/crc.nd.edu/x86_64_linux/gaussian/09D01/pgi12.8/g09/l1002.exe)
 Minotr:  Closed shell wavefunction.
          IDoAtm=11111111111111111111111111111111111111111
          Direct CPHF calculation.
          Differentiating once with respect to electric field.
                with respect to dipole field.
          Differentiating once with respect to nuclear coordinates.
          Requested convergence is 1.0D-08 RMS, and 1.0D-07 maximum.
          Secondary convergence is 1.0D-12 RMS, and 1.0D-12 maximum.
          NewPWx=T KeepS1=F KeepF1=F KeepIn=T MapXYZ=F SortEE=F KeepMc=T.
          MDV=     268434605 using IRadAn=       1.
 Defaulting to unpruned grid for atomic number  46.
 Generate precomputed XC quadrature information.
          Solving linear equations simultaneously, MaxMat=       0.
 FoFJK:  IHMeth= 1 ICntrl=       0 DoSepK=F KAlg= 0 I1Cent=   0 FoldK=F
 IRaf= 830000000 NMat= 126 IRICut=     315 DoRegI=T DoRafI=T ISym2E= 2.
 FoFCou: FMM=F IPFlag=           0 FMFlag=      100000 FMFlg1=           0
         NFxFlg=           0 DoJE=F BraDBF=F KetDBF=F FulRan=T
         wScrn=  0.000000 ICntrl=       0 IOpCl=  0 I1Cent=           0 NGrid=           0
         NMat0=  126 NMatS0=    126 NMatT0=    0 NMatD0=  126 NMtDS0=    0 NMtDT0=    0
 Integrals replicated using symmetry in FoFCou.
 Defaulting to unpruned grid for atomic number  46.
 Defaulting to unpruned grid for atomic number  46.
 Defaulting to unpruned grid for atomic number  46.
 Defaulting to unpruned grid for atomic number  46.
 Defaulting to unpruned grid for atomic number  46.
 Defaulting to unpruned grid for atomic number  46.
 Defaulting to unpruned grid for atomic number  46.
 Defaulting to unpruned grid for atomic number  46.
          There are   126 degrees of freedom in the 1st order CPHF.  IDoFFX=6 NUNeed=     3.
    123 vectors produced by pass  0 Test12= 2.97D-14 1.00D-09 XBig12= 3.14D+02 6.69D+00.
 AX will form   123 AO Fock derivatives at one time.
    123 vectors produced by pass  1 Test12= 2.97D-14 1.00D-09 XBig12= 7.11D+01 1.63D+00.
    123 vectors produced by pass  2 Test12= 2.97D-14 1.00D-09 XBig12= 2.07D+00 1.35D-01.
    123 vectors produced by pass  3 Test12= 2.97D-14 1.00D-09 XBig12= 1.20D-02 9.43D-03.
    123 vectors produced by pass  4 Test12= 2.97D-14 1.00D-09 XBig12= 4.78D-05 6.09D-04.
    123 vectors produced by pass  5 Test12= 2.97D-14 1.00D-09 XBig12= 1.42D-07 2.19D-05.
     76 vectors produced by pass  6 Test12= 2.97D-14 1.00D-09 XBig12= 3.24D-10 1.62D-06.
      5 vectors produced by pass  7 Test12= 2.97D-14 1.00D-09 XBig12= 5.73D-13 6.82D-08.
      3 vectors produced by pass  8 Test12= 2.97D-14 1.00D-09 XBig12= 7.81D-15 7.54D-09.
      3 vectors produced by pass  9 Test12= 2.97D-14 1.00D-09 XBig12= 1.90D-14 9.76D-09.
      3 vectors produced by pass 10 Test12= 2.97D-14 1.00D-09 XBig12= 3.64D-15 7.28D-09.
      3 vectors produced by pass 11 Test12= 2.97D-14 1.00D-09 XBig12= 7.61D-15 8.34D-09.
      2 vectors produced by pass 12 Test12= 2.97D-14 1.00D-09 XBig12= 2.63D-15 6.41D-09.
 InvSVY:  IOpt=1 It=  1 EMax= 1.07D-14
 Solved reduced A of dimension   833 with   126 vectors.
 FullF1:  Do perturbations    1 to     3.
 Isotropic polarizability for W=    0.000000      246.08 Bohr**3.
 End of Minotr F.D. properties file   721 does not exist.
 End of Minotr F.D. properties file   722 does not exist.
 End of Minotr F.D. properties file   788 does not exist.
 Leave Link 1002 at Fri Jun  3 21:03:01 2016, MaxMem=   268435456 cpu:     45268.8
 (Enter /afs/crc.nd.edu/x86_64_linux/gaussian/09D01/pgi12.8/g09/l601.exe)
 Copying SCF densities to generalized density rwf, IOpCl= 0 IROHF=0.

 **********************************************************************

            Population analysis using the SCF density.

 **********************************************************************

 Orbital symmetries:
       Occupied  (A) (A) (A) (A) (A) (A) (A) (A) (A) (A) (A) (A)
                 (A) (A) (A) (A) (A) (A) (A) (A) (A) (A) (A) (A)
                 (A) (A) (A) (A) (A) (A) (A) (A) (A) (A) (A) (A)
                 (A) (A) (A) (A) (A) (A) (A) (A) (A) (A) (A) (A)
                 (A) (A) (A) (A) (A) (A) (A) (A) (A) (A) (A) (A)
                 (A) (A) (A) (A) (A) (A) (A) (A) (A) (A) (A) (A)
                 (A) (A) (A) (A) (A) (A) (A) (A) (A) (A) (A) (A)
       Virtual   (A) (A) (A) (A) (A) (A) (A) (A) (A) (A) (A) (A)
                 (A) (A) (A) (A) (A) (A) (A) (A) (A) (A) (A) (A)
                 (A) (A) (A) (A) (A) (A) (A) (A) (A) (A) (A) (A)
                 (A) (A) (A) (A) (A) (A) (A) (A) (A) (A) (A) (A)
                 (A) (A) (A) (A) (A) (A) (A) (A) (A) (A) (A) (A)
                 (A) (A) (A) (A) (A) (A) (A) (A) (A) (A) (A) (A)
                 (A) (A) (A) (A) (A) (A) (A) (A) (A) (A) (A) (A)
                 (A) (A) (A) (A) (A) (A) (A) (A) (A) (A) (A) (A)
                 (A) (A) (A) (A) (A) (A) (A) (A) (A) (A) (A) (A)
                 (A) (A) (A) (A) (A) (A) (A) (A) (A) (A) (A) (A)
                 (A) (A) (A) (A) (A) (A) (A) (A) (A) (A) (A) (A)
                 (A) (A) (A) (A) (A) (A) (A) (A) (A) (A) (A) (A)
                 (A) (A) (A) (A) (A) (A) (A) (A) (A) (A) (A) (A)
                 (A) (A) (A) (A) (A) (A) (A) (A) (A) (A) (A) (A)
                 (A) (A) (A) (A) (A) (A) (A) (A) (A) (A) (A) (A)
                 (A) (A) (A) (A) (A) (A) (A) (A) (A) (A) (A) (A)
                 (A) (A) (A) (A) (A) (A) (A) (A) (A) (A) (A) (A)
                 (A) (A) (A) (A) (A) (A) (A) (A) (A) (A) (A) (A)
                 (A) (A) (A) (A) (A) (A) (A) (A) (A) (A) (A) (A)
                 (A) (A) (A) (A) (A) (A) (A) (A) (A) (A) (A) (A)
                 (A) (A) (A) (A) (A) (A) (A) (A) (A) (A) (A) (A)
                 (A) (A) (A) (A) (A) (A) (A) (A) (A) (A) (A) (A)
                 (A) (A) (A) (A) (A) (A) (A) (A) (A) (A) (A) (A)
                 (A) (A) (A) (A) (A) (A) (A) (A) (A) (A) (A) (A)
                 (A) (A) (A) (A) (A) (A) (A) (A) (A) (A) (A) (A)
                 (A) (A) (A) (A) (A) (A) (A) (A) (A) (A) (A) (A)
                 (A) (A) (A) (A) (A) (A) (A) (A) (A) (A) (A) (A)
                 (A) (A) (A) (A) (A) (A) (A) (A) (A) (A) (A) (A)
                 (A) (A) (A) (A) (A) (A) (A) (A) (A) (A) (A) (A)
                 (A) (A) (A) (A) (A)
 The electronic state is 1-A.
 Alpha  occ. eigenvalues --  -19.42366 -19.34224 -14.58100 -14.56478 -10.50566
 Alpha  occ. eigenvalues --  -10.45025 -10.44406 -10.43355 -10.42236 -10.41791
 Alpha  occ. eigenvalues --  -10.41692 -10.41106 -10.40774 -10.40254 -10.40141
 Alpha  occ. eigenvalues --  -10.39839 -10.37162 -10.37138 -10.36788 -10.36774
 Alpha  occ. eigenvalues --  -10.36445  -3.47433  -2.21758  -2.21604  -2.18371
 Alpha  occ. eigenvalues --   -1.27634  -1.16235  -1.12291  -1.07832  -0.98427
 Alpha  occ. eigenvalues --   -0.96278  -0.95625  -0.93772  -0.90041  -0.87245
 Alpha  occ. eigenvalues --   -0.87090  -0.81651  -0.80953  -0.80472  -0.77643
 Alpha  occ. eigenvalues --   -0.73145  -0.72876  -0.72384  -0.70392  -0.69356
 Alpha  occ. eigenvalues --   -0.66031  -0.65037  -0.64869  -0.64003  -0.63540
 Alpha  occ. eigenvalues --   -0.62152  -0.61093  -0.59768  -0.58489  -0.57989
 Alpha  occ. eigenvalues --   -0.57574  -0.57296  -0.56993  -0.56175  -0.55654
 Alpha  occ. eigenvalues --   -0.54432  -0.54266  -0.53525  -0.53010  -0.52481
 Alpha  occ. eigenvalues --   -0.51708  -0.51402  -0.50966  -0.49812  -0.48278
 Alpha  occ. eigenvalues --   -0.46834  -0.46471  -0.45343  -0.45191  -0.43219
 Alpha  occ. eigenvalues --   -0.42821  -0.41907  -0.41798  -0.40186  -0.40080
 Alpha  occ. eigenvalues --   -0.38950  -0.38205  -0.37521  -0.35521
 Alpha virt. eigenvalues --   -0.19722  -0.17267  -0.16056  -0.14940  -0.13311
 Alpha virt. eigenvalues --   -0.12678  -0.12063  -0.11828  -0.11351  -0.10387
 Alpha virt. eigenvalues --   -0.09980  -0.09641  -0.09520  -0.09218  -0.08830
 Alpha virt. eigenvalues --   -0.08665  -0.08506  -0.07850  -0.07410  -0.07279
 Alpha virt. eigenvalues --   -0.07065  -0.06571  -0.06130  -0.05907  -0.05493
 Alpha virt. eigenvalues --   -0.04677  -0.04322  -0.04061  -0.03723  -0.03376
 Alpha virt. eigenvalues --   -0.02815  -0.02559  -0.02319  -0.02083  -0.01515
 Alpha virt. eigenvalues --   -0.01293  -0.01140  -0.00813  -0.00288  -0.00083
 Alpha virt. eigenvalues --    0.00713   0.00856   0.01050   0.01311   0.01374
 Alpha virt. eigenvalues --    0.01610   0.01822   0.02231   0.02588   0.03019
 Alpha virt. eigenvalues --    0.03351   0.03687   0.03873   0.04444   0.04648
 Alpha virt. eigenvalues --    0.04950   0.05087   0.05428   0.05768   0.05973
 Alpha virt. eigenvalues --    0.06181   0.06595   0.07325   0.07618   0.07821
 Alpha virt. eigenvalues --    0.07897   0.08473   0.08605   0.08930   0.09375
 Alpha virt. eigenvalues --    0.09462   0.09940   0.10150   0.10457   0.10811
 Alpha virt. eigenvalues --    0.11080   0.11652   0.11990   0.12161   0.12211
 Alpha virt. eigenvalues --    0.12722   0.12763   0.12933   0.13082   0.13615
 Alpha virt. eigenvalues --    0.14008   0.14209   0.14531   0.14740   0.15025
 Alpha virt. eigenvalues --    0.15146   0.15354   0.15877   0.16390   0.16718
 Alpha virt. eigenvalues --    0.17039   0.17299   0.17903   0.18043   0.18252
 Alpha virt. eigenvalues --    0.18394   0.18873   0.19199   0.19743   0.19914
 Alpha virt. eigenvalues --    0.20281   0.20480   0.20922   0.21288   0.21773
 Alpha virt. eigenvalues --    0.22237   0.22420   0.22566   0.22992   0.23357
 Alpha virt. eigenvalues --    0.23902   0.24901   0.25082   0.25350   0.26252
 Alpha virt. eigenvalues --    0.26369   0.27324   0.28420   0.29044   0.29947
 Alpha virt. eigenvalues --    0.30475   0.31459   0.31949   0.32902   0.34461
 Alpha virt. eigenvalues --    0.35759   0.36178   0.37931   0.41628   0.44255
 Alpha virt. eigenvalues --    0.45796   0.46481   0.47752   0.48826   0.50331
 Alpha virt. eigenvalues --    0.50785   0.53084   0.53673   0.54490   0.54957
 Alpha virt. eigenvalues --    0.55272   0.56233   0.56987   0.57611   0.57672
 Alpha virt. eigenvalues --    0.58973   0.59233   0.59771   0.60018   0.60724
 Alpha virt. eigenvalues --    0.61283   0.61967   0.62496   0.63302   0.63626
 Alpha virt. eigenvalues --    0.64499   0.65203   0.65538   0.66270   0.67227
 Alpha virt. eigenvalues --    0.67601   0.68164   0.69332   0.69453   0.70660
 Alpha virt. eigenvalues --    0.71521   0.71810   0.73134   0.73415   0.75258
 Alpha virt. eigenvalues --    0.75286   0.76112   0.77231   0.77660   0.78109
 Alpha virt. eigenvalues --    0.78754   0.79475   0.79904   0.80263   0.80753
 Alpha virt. eigenvalues --    0.81313   0.81663   0.83126   0.83800   0.85470
 Alpha virt. eigenvalues --    0.86995   0.87157   0.87660   0.89247   0.89799
 Alpha virt. eigenvalues --    0.92379   0.92683   0.93845   0.94014   0.95644
 Alpha virt. eigenvalues --    0.96074   0.96570   0.96900   0.98445   0.99117
 Alpha virt. eigenvalues --    1.00429   1.01215   1.01885   1.02687   1.03773
 Alpha virt. eigenvalues --    1.04443   1.05412   1.06957   1.07407   1.08053
 Alpha virt. eigenvalues --    1.09432   1.09900   1.10519   1.10618   1.13064
 Alpha virt. eigenvalues --    1.14306   1.14815   1.16231   1.16368   1.17641
 Alpha virt. eigenvalues --    1.18162   1.19237   1.19865   1.20554   1.23062
 Alpha virt. eigenvalues --    1.23304   1.25888   1.27071   1.28037   1.29540
 Alpha virt. eigenvalues --    1.29720   1.30224   1.31566   1.32360   1.32624
 Alpha virt. eigenvalues --    1.34088   1.34262   1.35535   1.36092   1.37732
 Alpha virt. eigenvalues --    1.38175   1.39714   1.40201   1.41475   1.43392
 Alpha virt. eigenvalues --    1.45406   1.46689   1.48577   1.50885   1.52841
 Alpha virt. eigenvalues --    1.54402   1.57360   1.59588   1.60930   1.61391
 Alpha virt. eigenvalues --    1.65349   1.66980   1.67227   1.67445   1.67827
 Alpha virt. eigenvalues --    1.69637   1.70124   1.71832   1.72532   1.73393
 Alpha virt. eigenvalues --    1.74804   1.75286   1.76324   1.76611   1.78013
 Alpha virt. eigenvalues --    1.79954   1.80385   1.81810   1.82543   1.83187
 Alpha virt. eigenvalues --    1.83701   1.84206   1.86485   1.89828   1.91445
 Alpha virt. eigenvalues --    1.91880   1.93900   1.96178   1.97018   1.98080
 Alpha virt. eigenvalues --    1.99356   2.00017   2.00681   2.01202   2.01551
 Alpha virt. eigenvalues --    2.01964   2.03393   2.04449   2.05143   2.06134
 Alpha virt. eigenvalues --    2.06847   2.07126   2.09115   2.10059   2.11775
 Alpha virt. eigenvalues --    2.12401   2.13668   2.15816   2.16596   2.17932
 Alpha virt. eigenvalues --    2.18366   2.20294   2.23919   2.25987   2.26517
 Alpha virt. eigenvalues --    2.27542   2.33336   2.34544   2.36576   2.38936
 Alpha virt. eigenvalues --    2.40172   2.41908   2.43766   2.45378   2.46354
 Alpha virt. eigenvalues --    2.46516   2.48623   2.51036   2.52578   2.54824
 Alpha virt. eigenvalues --    2.54936   2.55506   2.57464   2.58118   2.62464
 Alpha virt. eigenvalues --    2.63528   2.65862   2.66626   2.66950   2.68475
 Alpha virt. eigenvalues --    2.71622   2.72842   2.73152   2.77442   2.83070
 Alpha virt. eigenvalues --    2.86263   2.90319   2.93222   2.97465   3.15501
 Alpha virt. eigenvalues --    3.22690   3.28124  16.48949
          Condensed to atoms (all electrons):
               1          2          3          4          5          6
     1  Pd  19.279250  -1.366662   2.330280  -2.588499   0.401948   0.192603
     2  C   -1.366662  11.961828  -5.407410   1.743827  -0.121544  -0.093605
     3  C    2.330280  -5.407410  12.314411  -5.513533   0.152618   0.201714
     4  C   -2.588499   1.743827  -5.513533  28.013437  -0.268111  -0.542631
     5  N    0.401948  -0.121544   0.152618  -0.268111   7.057269   0.128693
     6  C    0.192603  -0.093605   0.201714  -0.542631   0.128693   9.178382
     7  C   -0.360380   0.088823  -0.166067   0.010835  -0.049165  -0.231131
     8  N    0.445404  -0.169125   0.297443  -1.038818  -0.040790   0.172154
     9  C   -0.336701   0.209922  -0.368728   1.136829  -0.265182   1.253084
    10  H   -0.033072   0.004749  -0.006341   0.061336  -0.000571   0.004881
    11  O    0.024115  -0.005227   0.002817  -0.000245  -0.132979   0.353103
    12  C    0.080585  -0.050142   0.180229  -2.426943   0.007757  -0.003029
    13  C   -0.087057   0.064582   0.167538  -1.700286   0.031745  -0.005002
    14  C    0.299015   0.640494   0.564002  -6.619518   0.115172   0.195789
    15  C    1.042131  -1.245863   1.530254  -6.611350  -0.001637   0.154292
    16  C   -0.321510   0.260014  -0.368884   0.190974  -0.000948  -0.008586
    17  O    0.035435  -0.217662   0.172710  -0.073329   0.000122   0.003470
    18  C   -0.315945  -0.551741  -0.074349   0.669886   0.015126  -0.078261
    19  H    0.001258  -0.000268   0.000890  -0.025813   0.000003   0.000017
    20  H   -0.001932   0.001275  -0.007193   0.030257  -0.000024   0.000040
    21  H   -0.018470  -0.010626  -0.011321   0.347741  -0.000120  -0.002289
    22  H   -0.023678   0.014606  -0.033466   0.382050   0.000375  -0.002072
    23  H   -0.003698   0.001988  -0.007248   0.036082  -0.000023  -0.000034
    24  H   -0.001317   0.093302  -0.049848   0.002572   0.000030  -0.000223
    25  H    0.015858  -0.156793   0.070616   0.138532  -0.005991  -0.000343
    26  H   -0.004380  -0.031083  -0.000787  -0.037270   0.012301   0.006347
    27  H   -0.020208   0.258458   0.013222   0.020879  -0.005220  -0.004807
    28  H   -0.037492   0.029457   0.290782   0.112992  -0.000965   0.000776
    29  H   -0.049879   0.055584   0.242527   0.115355  -0.000679   0.000918
    30  C   -0.415691   0.135033  -0.143396   0.330929   0.019974  -4.033612
    31  C   -0.112539   0.037746  -0.030946   0.232500  -0.116558   1.067614
    32  C   -0.012776  -0.024784  -0.038489   0.456433   0.198003  -1.888296
    33  C    0.015385   0.049808  -0.053744   0.014774  -0.050601   0.308567
    34  C   -0.045712  -0.064445   0.074067  -0.089657   0.140811  -0.409971
    35  H    0.001623   0.000008  -0.000009  -0.000321   0.001031   0.066032
    36  H    0.001768  -0.000011   0.000008   0.000317   0.000101  -0.008116
    37  H    0.002113  -0.000048   0.000174   0.001915  -0.000049   0.007364
    38  H    0.002057  -0.001094  -0.000056  -0.000117   0.007070   0.012580
    39  H    0.000210   0.000731   0.000092  -0.000116   0.001569   0.024516
    40  H    0.004463   0.000264   0.000752  -0.001283  -0.038409  -0.010083
    41  H    0.009611   0.000706  -0.001289  -0.001740  -0.033357  -0.016449
               7          8          9         10         11         12
     1  Pd  -0.360380   0.445404  -0.336701  -0.033072   0.024115   0.080585
     2  C    0.088823  -0.169125   0.209922   0.004749  -0.005227  -0.050142
     3  C   -0.166067   0.297443  -0.368728  -0.006341   0.002817   0.180229
     4  C    0.010835  -1.038818   1.136829   0.061336  -0.000245  -2.426943
     5  N   -0.049165  -0.040790  -0.265182  -0.000571  -0.132979   0.007757
     6  C   -0.231131   0.172154   1.253084   0.004881   0.353103  -0.003029
     7  C   11.314947   0.088371  -1.681007   0.040083  -0.226875  -0.009886
     8  N    0.088371   6.731395   0.236692  -0.051734   0.038436   0.056908
     9  C   -1.681007   0.236692  15.076293   0.205779   0.017496   0.093091
    10  H    0.040083  -0.051734   0.205779   0.489110   0.000015  -0.015858
    11  O   -0.226875   0.038436   0.017496   0.000015   8.306992   0.000097
    12  C   -0.009886   0.056908   0.093091  -0.015858   0.000097   6.746868
    13  C    0.017735   0.026359  -0.191736   0.061301   0.000211   0.313328
    14  C    0.058358   0.345195   0.018342  -0.066709   0.003340   0.639030
    15  C   -0.015781   0.323384  -0.361064  -0.063013  -0.002342   0.291656
    16  C   -0.028691  -0.050937  -0.054623   0.061670  -0.000328   0.199775
    17  O   -0.004356   0.001069  -0.001423   0.000000  -0.000002   0.001129
    18  C    0.054523  -0.027369   0.015998   0.000449  -0.000870  -0.007281
    19  H    0.000886   0.000787   0.001811  -0.000016   0.000000   0.236626
    20  H   -0.000556  -0.000618   0.003000   0.000030   0.000000   0.038868
    21  H   -0.002496  -0.007822   0.013694   0.000060  -0.000001  -0.028071
    22  H   -0.003735  -0.008013   0.018804  -0.000042   0.000001  -0.033459
    23  H   -0.000035  -0.000603   0.002761   0.000008   0.000000   0.042414
    24  H    0.000298  -0.000033   0.000028   0.000000   0.000000   0.000001
    25  H   -0.001403  -0.000224   0.001643   0.000000  -0.000031  -0.002956
    26  H   -0.001457   0.001061  -0.000485   0.000000   0.000163   0.000251
    27  H    0.003751  -0.001618   0.001361   0.000000  -0.000034  -0.000006
    28  H   -0.000534  -0.001495   0.002296   0.000005  -0.000001  -0.005772
    29  H   -0.000455  -0.001329   0.001419   0.000003   0.000000  -0.003752
    30  C   -3.038859  -0.165040  -2.930990  -0.033907  -0.052835   0.011390
    31  C   -0.612295  -0.142842   1.984974   0.039739   0.050803  -0.047284
    32  C    0.528619  -0.278501  -8.164584   0.071139  -0.017884  -0.114535
[...]
 ,0.00036046,0.00032930,0.00004806,-0.00025958,0.00041757,0.00052819,0.
 14876934,0.24001755,-0.00004497,0.00005210,0.00006424,0.00001362,-0.00
 001377,0.00004884,-0.00001979,-0.00001172,-0.00000022,-0.00001519,0.00
 001906,-0.00010581,0.00000548,0.00000182,0.00010039,-0.00002996,0.0001
 7917,-0.00164932,0.00022032,0.00002297,-0.00026848,0.00035725,-0.00152
 904,0.00730949,-0.00240866,-0.00201231,0.00149201,-0.00006729,0.000448
 64,-0.00291446,-0.00002265,-0.00000515,0.00005150,0.00000829,-0.000001
 88,0.00006229,0.00005372,0.00004964,-0.00000586,-0.00007418,0.00001388
 ,-0.00001013,0.00010209,-0.00000501,-0.00000336,-0.00006256,-0.0000511
 4,-0.00002470,-0.00000230,-0.00000618,0.00000109,0.00001232,-0.0000063
 7,-0.00000696,-0.00000009,-0.00000223,0.00001519,-0.00001376,0.0000103
 9,-0.00001108,0.00000612,0.00000052,0.00000318,-0.00001068,-0.00000324
 ,0.00000663,0.00002423,-0.00000741,-0.00001774,0.00000071,-0.00000064,
 0.00000164,-0.00000244,-0.00000053,-0.00000034,-0.00000159,-0.00000022
 ,0.00000057,-0.00000614,0.00000591,0.00000066,0.00000271,-0.00000132,0
 .00000278,0.00000009,0.00000297,0.00000334,0.00030383,-0.00081398,0.00
 782215,0.00076658,0.00073649,0.00431860,-0.01500268,-0.02127127,-0.040
 76201,-0.00000539,-0.00000437,0.00003296,-0.00000615,0.00001415,0.0000
 2857,0.00004283,0.00006312,-0.00012143,-0.00007213,0.00052709,-0.00401
 430,0.01593406,0.02360459,0.02855844,0.00018093,-0.00009429,-0.0001955
 5,0.00008770,0.00001896,-0.00008705,0.00001809,-0.00008362,0.00000934,
 -0.00000236,0.00004490,0.00007552,-0.00204699,-0.00045466,0.00025071,-
 0.00041223,-0.00062985,-0.00040797,-0.00023252,0.00010932,0.00001785,-
 0.00014162,-0.00014229,0.00010416,-0.00001905,0.00002533,-0.00003641,-
 0.00000568,-0.00000262,-0.00000598,-0.00518257,-0.00678801,-0.00965704
 ,-0.00000599,-0.00000421,0.00000135,0.00000552,-0.00000109,-0.00000333
 ,-0.00001821,-0.00001605,0.00001652,-0.00004959,-0.00002352,-0.0000408
 2,0.00000347,-0.00000865,0.00001287,-0.00004561,0.00010230,0.00000181,
 0.00010017,-0.00008214,-0.00000441,-0.00000180,-0.00000006,0.00000023,
 -0.00000327,-0.00000281,-0.00000086,0.00000429,0.00000403,0.00000131,-
 0.00000242,0.00000575,0.00000139,-0.00000580,-0.00000665,-0.00000087,0
 .00001299,-0.00001228,0.00001088,-0.00003646,0.00000435,0.00001400,0.0
 0000440,-0.00003548,0.00003676,-0.00001034,0.00003342,-0.00001310,-0.0
 0001347,0.00000198,-0.00000056,0.00000161,0.00000155,0.00000366,0.0000
 0187,0.00000199,0.00002285,-0.00001521,-0.00001498,-0.00001987,0.00000
 618,-0.00001183,-0.00000191,-0.11253448,0.00047829,-0.11001135,-0.0083
 2628,0.00255769,-0.02125233,0.00000793,0.00002489,-0.00001235,-0.00000
 165,-0.00000518,0.00000012,-0.00000107,-0.00000336,0.00000574,0.118904
 76,-0.00005908,0.00009885,0.00014935,-0.00004479,-0.00004911,0.0000274
 7,0.00002095,0.00004508,-0.00001327,0.00004579,-0.00006252,-0.00004886
 ,0.00111351,0.00118762,0.00131545,0.00612652,-0.00525211,-0.00343972,-
 0.00088014,0.00013941,0.00071886,-0.00000071,-0.00018030,0.00016157,-0
 .00013510,-0.00018299,-0.00008569,-0.00000662,-0.00002691,-0.00003209,
 -0.02828905,-0.01433670,-0.03085750,0.00000050,0.00000358,0.00000024,-
 0.00000100,0.00000654,-0.00000025,-0.00002018,-0.00000009,0.00000778,-
 0.00000306,0.00000582,0.00000320,-0.00000240,0.00001349,-0.00000236,0.
 00004227,-0.00004814,-0.00002246,-0.00010111,0.00005703,0.00004727,0.0
 0000178,-0.00000227,-0.00000053,0.00000030,-0.00000189,-0.00000032,0.0
 0000268,-0.00000509,-0.00000008,0.00000574,-0.00000440,-0.00000331,0.0
 0000114,-0.00000004,-0.00000031,-0.00001488,0.00001256,-0.00000470,0.0
 0002910,-0.00000552,-0.00000639,-0.00000057,0.00003361,-0.00003235,-0.
 00000209,-0.00000368,0.00000999,0.00000415,0.00000301,-0.00000339,-0.0
 0000198,-0.00000193,0.00000090,-0.00012273,0.00000777,-0.00000019,0.00
 007980,0.00006917,0.00000021,-0.00011775,0.00010338,0.00001757,0.00512
 029,-0.04392471,0.00908541,0.00718759,0.00123285,0.01418161,-0.0000225
 3,0.00006461,-0.00005136,-0.00000733,-0.00001334,0.00000045,-0.0000042
 1,0.00000071,0.00000426,0.00328854,0.05794805,0.00003932,0.00008031,-0
 .00002748,0.00000214,-0.00000531,0.00001074,0.00001635,-0.00000375,-0.
 00000279,0.00003443,-0.00000684,0.00000283,0.00058703,0.00015959,-0.00
 069403,0.00230523,0.00004525,-0.00060786,-0.00007009,-0.00007137,-0.00
 013867,0.00003857,0.00000306,0.00001240,-0.00000424,-0.00004450,0.0000
 1827,0.00000082,-0.00000218,0.00000058,-0.00313717,-0.00506412,0.00372
 026,-0.00000174,-0.00000134,0.00000045,0.00000026,0.00000510,0.0000003
 3,-0.00001377,-0.00000855,0.00000537,-0.00001712,-0.00000522,-0.000010
 28,0.00000004,0.00000337,0.00000197,-0.00001534,0.00004219,0.00000176,
 0.00003467,-0.00003312,-0.00000440,-0.00000050,-0.00000165,-0.00000033
 ,-0.00000050,-0.00000203,-0.00000113,0.00000431,-0.00000170,0.00000162
 ,0.00000338,0.00000006,-0.00000169,-0.00000119,-0.00000261,0.00000019,
 -0.00000030,-0.00001108,0.00000066,0.00000222,0.00000201,0.00000169,-0
 .00002611,0.00000193,-0.00000201,0.00000524,-0.00000811,-0.00000599,-0
 .00000039,-0.00000018,-0.00000035,-0.00000064,-0.00000309,-0.00000099,
 -0.00004281,-0.00000445,0.00000799,0.00001598,0.00001757,0.00000748,-0
 .00002848,0.00002449,-0.00000573,-0.11316191,0.00057650,-0.26629023,0.
 00252416,0.00098730,0.00430481,-0.00002332,0.00001861,-0.00001070,-0.0
 0000345,-0.00000385,-0.00000168,-0.00000184,0.00000086,-0.00000251,0.1
 2293722,0.00339012,0.27521716,0.00027750,-0.00014566,0.00013997,0.0001
 5523,-0.00005985,0.00004277,-0.00000391,-0.00005285,-0.00006633,0.0000
 0611,0.00006953,-0.00002593,-0.00282938,-0.00035703,-0.00002152,-0.000
 88816,-0.00060439,0.00031312,-0.00025842,0.00013962,0.00002257,-0.0001
 6829,-0.00014204,-0.00011749,-0.00001286,0.00000674,0.00003543,-0.0000
 0562,-0.00000441,0.00000346,-0.00618558,-0.00723124,0.00522741,-0.0000
 0612,-0.00000548,-0.00000148,0.00000446,0.00000016,-0.00001686,-0.0000
 5520,-0.00004296,0.00003342,-0.00003882,-0.00001871,-0.00003666,0.0000
 0321,-0.00000184,0.00001063,0.00002150,0.00004448,-0.00004847,-0.00005
 622,-0.00001829,0.00008034,-0.00000224,-0.00000068,-0.00000006,-0.0000
 0723,-0.00000713,-0.00000207,0.00000121,0.00000675,0.00000088,0.000005
 67,0.00000407,0.00000140,-0.00000528,-0.00000564,-0.00000061,-0.000022
 29,0.00000368,0.00000521,-0.00000732,0.00000504,-0.00001129,0.00001587
 ,0.00001103,0.00001973,0.00001940,0.00000107,-0.00003087,-0.00000095,0
 .00000266,-0.00000149,-0.00001720,-0.00000158,0.00000915,-0.00001904,0
 .00000588,-0.00001558,-0.00001279,-0.00001909,0.00000991,0.00000044,-0
 .00001279,0.00000081,-0.15780955,-0.03302522,0.12812000,-0.01112390,-0
 .00262509,0.01746536,0.00000424,0.00001312,0.00001799,-0.00000251,-0.0
 0000668,-0.00000038,-0.00000069,-0.00000250,-0.00000550,0.01125252,0.0
 0405477,-0.01206392,0.16885240,-0.00012172,0.00015392,-0.00004191,-0.0
 0010808,0.00002662,-0.00002992,0.00004013,0.00003773,0.00003782,0.0000
 4439,-0.00008093,-0.00000730,0.00231872,0.00073336,-0.00056922,0.00513
 267,-0.00650070,0.00214782,-0.00097052,0.00044512,-0.00063049,-0.00009
 085,-0.00019582,-0.00020599,-0.00014389,-0.00017266,0.00004853,-0.0000
 0641,-0.00003675,0.00002018,-0.03151444,-0.01899842,0.02028431,0.00000
 279,0.00000282,0.00000364,-0.00000397,0.00001316,0.00000819,0.00000242
 ,0.00000441,-0.00000712,0.00000077,0.00000814,0.00000392,-0.00000399,0
 .00001025,-0.00000350,0.00000058,-0.00001902,0.00001032,-0.00000314,0.
 00000552,-0.00001191,0.00000221,-0.00000231,-0.00000035,0.00000216,0.0
 0000084,0.00000015,0.00000372,-0.00000618,0.00000111,0.00000217,-0.000
 00665,-0.00000378,0.00000230,0.00000009,-0.00000038,0.00001393,0.00000
 267,-0.00000120,0.00000375,-0.00000215,0.00000863,-0.00000296,0.000007
 25,-0.00001866,-0.00001996,0.00001037,0.00001352,-0.00000110,0.0000015
 3,-0.00000221,0.00001141,-0.00000246,-0.00000352,-0.00011952,0.0000059
 8,0.00000075,0.00008428,0.00006250,0.00002134,-0.00010794,0.00009696,0
 .00000956,-0.02680325,-0.05339409,0.03502044,0.01003373,0.00597002,-0.
 01231879,-0.00002659,0.00004349,0.00005228,-0.00000828,-0.00001273,-0.
 00000334,-0.00000340,0.00000133,-0.00000486,0.00094133,0.00300376,0.00
 034762,0.03956903,0.06862792,0.00001023,-0.00007442,-0.00002626,0.0000
 1752,-0.00001517,0.00000285,-0.00000725,-0.00000312,-0.00000385,-0.000
 02463,0.00000500,-0.00000026,-0.00134332,-0.00018624,-0.00072937,-0.00
 146920,-0.00150604,-0.00006611,-0.00022351,0.00023262,-0.00021205,-0.0
 0010969,-0.00009069,-0.00004591,-0.00003040,0.00000929,0.00003256,-0.0
 0000411,-0.00000736,0.00000624,-0.00635930,-0.00267947,0.01041460,0.00
 000019,0.00000018,0.00000025,0.00000042,-0.00000242,-0.00000183,0.0000
 0028,-0.00000028,0.00000263,0.00000160,0.00000161,-0.00000336,0.000000
 88,-0.00000284,0.00000111,0.00001633,-0.00003417,-0.00001020,-0.000038
 53,0.00003285,0.00002072,0.00000032,0.00000088,0.00000017,-0.00000049,
 0.00000023,0.00000059,-0.00000153,0.00000096,-0.00000125,-0.00000251,0
 .00000048,0.00000175,-0.00000071,0.00000044,-0.00000046,-0.00000214,0.
 00001131,-0.00000035,0.00000246,-0.00000182,-0.00000222,0.00001105,0.0
 0000812,-0.00000324,-0.00000301,0.00001190,0.00000127,-0.00000173,0.00
 000215,-0.00000078,-0.00000268,0.00000204,0.00000206,0.00001160,0.0000
 0038,-0.00000899,-0.00000204,-0.00000686,0.00000835,0.00000405,-0.0000
 0724,-0.00000672,0.13351930,0.04354860,-0.21408587,-0.00330112,-0.0007
 1883,0.00391473,0.00001978,0.00000301,0.00001127,0.00000079,-0.0000010
 6,-0.00000126,0.00000052,-0.00000094,-0.00000331,0.01800983,0.00518131
 ,-0.01781860,-0.13861369,-0.04381807,0.21666320,0.00082202,0.00002022,
 -0.00014053,-0.00018895,-0.00023842,-0.00020258,0.00000265,0.00000688,
 0.00011921,-0.00011509,-0.00016268,0.00003714,0.00217940,-0.02094789,-
 0.02313048,-0.00781941,-0.00030904,-0.00192100,0.00073652,-0.00032911,
 0.00165272,-0.00000721,0.00014062,-0.00000334,0.00002247,-0.00027465,-
 0.00005212,0.00000707,-0.00003064,-0.00000589,0.00138954,0.00438684,0.
 00132286,0.00001236,0.00001975,0.00000469,-0.00000334,0.00001447,0.000
 01251,0.00003642,0.00005278,-0.00001083,0.00002014,0.00002702,0.000015
 73,-0.00000458,0.00002050,-0.00000023,0.00006441,-0.00009824,-0.000000
 75,-0.00011246,0.00018521,0.00010562,0.00000814,-0.00000173,-0.0000009
 0,0.00000930,0.00000379,0.00000339,0.00000389,-0.00001213,-0.00001571,
 -0.00000101,-0.00002024,0.00000121,0.00000914,0.00000298,-0.00000328,-
 0.00000438,0.00003245,-0.00001449,0.00007241,-0.00002539,0.00003860,0.
 00010649,0.00000932,-0.00013815,-0.00105466,0.00031934,0.00016206,-0.0
 0001795,0.00001782,-0.00000707,0.00002436,0.00001632,0.00001393,-0.000
 32799,-0.00017682,-0.00000743,0.00008304,0.00006249,-0.00014199,-0.000
 19451,0.00004594,0.00002275,-0.00236694,0.01115600,0.02084737,-0.05120
 604,0.02094422,0.03003438,-0.00000583,-0.00001826,0.00003651,-0.000016
 32,-0.00002562,0.00000591,-0.00000193,0.00000997,0.00000395,0.00171643
 ,-0.00007826,-0.00010410,-0.00268684,0.00204029,-0.00013302,0.05752742
 ,0.00037027,-0.00004704,-0.00002803,0.00003108,0.00003866,-0.00009947,
 0.00005168,-0.00007028,0.00005437,-0.00000947,-0.00003576,-0.00003375,
 -0.00339027,-0.01887516,-0.01739291,-0.00224744,0.00006187,-0.00110435
 ,0.00028166,-0.00086226,0.00102911,0.00014737,0.00009366,0.00001153,-0
 .00004117,-0.00014037,-0.00005450,-0.00000142,-0.00001350,-0.00000333,
 0.00051033,-0.00266961,-0.00101072,-0.00000048,0.00000158,0.00000347,0
 .00000270,0.00000921,-0.00000819,-0.00004750,-0.00002193,0.00002030,-0
 .00003391,-0.00001692,-0.00003583,-0.00000193,0.00000628,0.00001355,-0
 .00000599,-0.00007978,-0.00004586,0.00000867,0.00005437,-0.00002700,0.
 00000163,-0.00000172,-0.00000015,-0.00000196,-0.00000418,-0.00000007,0
 .00000453,-0.00000207,-0.00000215,-0.00000258,-0.00000299,0.00000366,-
 0.00000334,-0.00000477,-0.00000193,0.00001518,0.00001552,0.00001641,-0
 .00004546,-0.00000509,0.00001277,-0.00013753,0.00007565,0.00004746,0.0
 0025951,0.00020085,-0.00002071,-0.00001545,0.00000737,-0.00000372,0.00
 001622,0.00001109,0.00000307,-0.00023963,-0.00007360,0.00005430,0.0000
 0029,-0.00002394,-0.00016003,-0.00004250,0.00004274,0.00001839,0.00213
 606,-0.00567608,-0.01230356,0.02014288,-0.11973387,-0.11478671,-0.0000
 2093,0.00003138,0.00007102,-0.00001418,-0.00002060,-0.00000187,-0.0000
 0682,0.00000135,0.00001204,-0.00065560,0.00098108,0.00007537,0.0011371
 8,-0.00094974,0.00031993,-0.01668674,0.13602172,0.00008468,-0.00027140
 ,-0.00004274,-0.00001080,-0.00017736,-0.00026650,0.00003740,-0.0001026
 7,0.00012686,-0.00007201,-0.00002779,-0.00004680,-0.00190534,-0.001729
 56,0.00454957,-0.00126180,0.00194637,0.00002766,-0.00011450,-0.0001126
 7,-0.00018552,0.00002808,0.00006830,0.00002538,-0.00001013,-0.00010182
 ,-0.00002205,0.00000540,-0.00001215,-0.00000118,0.00009753,0.00230143,
 -0.00047741,0.00000734,0.00000630,0.00000131,-0.00000381,0.00000647,-0
 .00000893,-0.00002354,0.00000626,0.00001267,-0.00000759,0.00001297,0.0
 0000413,-0.00000038,0.00000344,0.00000459,0.00011329,0.00009448,0.0000
 5137,-0.00018342,0.00003102,0.00000862,0.00000209,-0.00000123,-0.00000
 044,0.00000243,-0.00000267,0.00000025,0.00000665,-0.00000847,-0.000006
 87,0.00000742,-0.00000685,0.00000209,0.00000281,-0.00000020,-0.0000009
 1,-0.00005430,0.00000974,-0.00004668,0.00011759,-0.00000304,0.00002230
 ,0.00004338,-0.00005846,-0.00026131,0.00000562,0.00010425,0.00023837,-
 0.00001076,0.00001113,-0.00000512,0.00003383,0.00002934,0.00000075,-0.
 00005092,0.00005592,0.00004100,-0.00000621,0.00002572,0.00003872,-0.00
 004821,0.00003338,-0.00000032,-0.00025222,0.00251967,0.00370775,0.0276
 7191,-0.11974876,-0.23838104,0.00000056,0.00001275,-0.00001831,-0.0000
 0117,-0.00000055,-0.00000397,-0.00000117,0.00000263,-0.00000176,0.0000
 4591,0.00013905,0.00124339,-0.00037566,-0.00025290,0.00074692,-0.02696
 361,0.12886182,0.24916181,0.00070372,-0.00014832,0.00009272,0.00011476
 ,-0.00021336,0.00008832,-0.00002317,0.00000933,-0.00011993,-0.00011960
 ,-0.00013971,-0.00002282,0.00032468,-0.02339884,0.02017310,-0.00756325
 ,0.00019218,0.00199011,0.00065310,0.00004806,-0.00168813,0.00003481,0.
 00018218,0.00007971,0.00000687,-0.00036781,-0.00005786,0.00000825,-0.0
 0003348,-0.00000737,0.00258317,0.00415738,-0.00037923,0.00001604,0.000
 01945,0.00000285,-0.00000823,0.00001690,-0.00000428,0.00000779,0.00002
 566,0.00001819,0.00001484,0.00002754,0.00001387,-0.00000630,0.00002661
 ,-0.00000071,0.00047196,-0.00045893,-0.00014247,-0.00135246,0.00049446
 ,0.00037308,0.00000851,-0.00000211,-0.00000119,0.00000688,-0.00000069,
 0.00000280,0.00000065,-0.00001760,-0.00002010,0.00000902,-0.00001822,0
 .00000156,0.00000873,0.00000292,-0.00000296,-0.00007880,0.00011422,-0.
 00007957,0.00021386,0.00001588,-0.00005880,-0.00022473,0.00045784,-0.0
 0025130,-0.00001409,0.00005482,0.00003042,0.00001866,0.00002893,-0.000
 01539,-0.00001760,0.00000264,0.00001993,-0.00033692,-0.00019476,-0.000
 03423,0.00011567,0.00006037,0.00015181,-0.00024451,0.00008832,-0.00000
 556,-0.00234225,0.01280384,-0.02153846,-0.04784969,0.01176236,-0.01242
 026,-0.00000886,0.00000061,-0.00004470,-0.00001600,-0.00002464,-0.0000
 1048,-0.00000326,0.00000965,0.00001014,-0.00319420,0.00279016,0.000167
 55,0.00160665,-0.00019277,0.00004746,0.00128180,-0.00146496,0.00304363
 ,0.05519349,0.00044728,0.00000639,0.00006839,-0.00006124,-0.00013355,0
 .00001621,-0.00000316,0.00000312,-0.00000430,-0.00000603,-0.00005005,0
 .00000819,-0.00601334,-0.02161834,0.01456986,-0.00316057,0.00079368,0.
 00118436,0.00023455,-0.00061055,-0.00121722,0.00015104,0.00007801,-0.0
 0001351,-0.00002624,-0.00016870,0.00003924,-0.00000166,-0.00001489,-0.
 00000297,0.00053591,-0.00204091,0.00031166,-0.00000053,0.00000139,-0.0
 0000062,-0.00000068,0.00000589,-0.00000670,-0.00003286,-0.00002120,0.0
 0002453,-0.00003961,-0.00000867,-0.00002769,-0.00000317,0.00001411,0.0
 0001018,0.00001011,-0.00008824,-0.00007476,0.00030117,0.00000388,0.000
 05033,0.00000191,-0.00000241,-0.00000061,-0.00000405,-0.00000426,-0.00
 000049,-0.00000254,0.00000201,-0.00000273,0.00000722,-0.00000613,-0.00
 000067,-0.00000056,-0.00000433,-0.00000181,0.00002392,0.00002342,0.000
 02166,-0.00004454,-0.00002911,0.00002767,-0.00014210,0.00033645,0.0000
 2028,-0.00005531,0.00004348,-0.00002574,-0.00001211,0.00000265,-0.0000
 0272,-0.00000423,0.00000405,0.00000808,-0.00024828,-0.00002964,-0.0000
 6230,-0.00000584,-0.00005745,0.00014789,-0.00005210,0.00004161,-0.0000
 0165,0.00159560,-0.00631348,0.01266083,0.01271497,-0.13937479,0.122911
 22,-0.00001755,0.00004353,-0.00005293,-0.00001440,-0.00002170,-0.00000
 077,-0.00000642,0.00000411,-0.00001616,0.00143458,-0.00091624,-0.00049
 625,-0.00068365,0.00110488,-0.00021628,-0.00009938,0.01167687,-0.01366
 390,-0.00671612,0.15732512,-0.00014499,0.00014868,-0.00000698,-0.00002
 539,0.00024630,-0.00009495,0.00000912,0.00005418,0.00001177,0.00005183
 ,0.00001333,-0.00000567,0.00179750,-0.00215482,0.00842661,0.00017577,-
 0.00209416,0.00009218,0.00023566,0.00020884,-0.00046851,-0.00003042,-0
 .00004071,0.00000851,0.00000851,0.00005626,-0.00000841,-0.00000438,0.0
 0000853,0.00000311,0.00013239,-0.00097613,-0.00114498,-0.00000538,-0.0
 0000364,-0.00000049,0.00000309,-0.00000620,0.00000949,0.00001621,0.000
 00179,-0.00001638,0.00001137,-0.00001388,-0.00000035,0.00000028,-0.000
 00351,-0.00000356,-0.00027060,0.00002678,0.00002477,0.00020094,-0.0000
 3017,-0.00022144,-0.00000145,0.00000103,0.00000082,-0.00000096,0.00000
 244,0.00000041,-0.00000649,0.00000703,0.00000883,-0.00000826,0.0000039
 4,0.00000040,-0.00000252,0.00000140,0.00000087,0.00010697,-0.00003479,
 0.00006093,-0.00022783,-0.00001097,0.00000453,0.00041099,-0.00018532,0
 .00047188,0.00006586,-0.00000465,-0.00010918,-0.00000359,-0.00002465,0
 .00000789,0.00000923,-0.00000410,-0.00000694,0.00000675,-0.00011370,0.
 00002253,0.00003368,-0.00002579,0.00006319,0.00001365,-0.00001774,-0.0
 0000765,-0.00045932,-0.00220920,0.00277742,-0.01131829,0.12682161,-0.2
 1888596,-0.00000312,-0.00001235,-0.00003818,-0.00000112,-0.00000155,-0
 .00000635,0.00000074,-0.00000086,-0.00000077,0.00017172,0.00016302,0.0
 0106752,-0.00010370,-0.00010472,0.00120095,-0.00144301,0.01649626,-0.0
 2023767,0.01059855,-0.13618779,0.22699982\\-0.00000012,-0.00000016,0.0
 0000011,-0.00000121,-0.00000032,-0.00000020,-0.00000066,-0.00000065,0.
 00000009,-0.00000008,-0.00000085,0.00000045,-0.00000074,0.00000122,-0.
 00000064,0.00000021,0.00000153,-0.00000066,0.00000092,0.00000121,-0.00
 000031,-0.00000002,-0.00000008,-0.00000004,0.00000105,-0.00000023,0.00
 000050,0.00000114,-0.00000058,0.00000059,0.00000092,0.00000150,-0.0000
 0062,0.00000069,-0.00000189,0.00000113,0.00000013,-0.00000181,0.000001
 03,-0.00000028,-0.00000143,0.00000051,0.00000062,-0.00000095,0.0000007
 5,0.00000095,-0.00000151,0.00000109,-0.00000243,0.00000001,-0.00000044
 ,-0.00000167,-0.00000040,-0.00000043,0.00000098,-0.00000230,0.00000150
 ,-0.00000005,-0.00000213,0.00000112,-0.00000067,-0.00000120,0.00000051
 ,0.00000072,-0.00000068,0.00000054,0.00000135,-0.00000159,0.00000120,-
 0.00000267,-0.00000028,-0.00000059,-0.00000175,-0.00000050,-0.00000030
 ,-0.00000133,0.00000003,-0.00000068,-0.00000104,0.00000026,-0.00000045
 ,-0.00000054,-0.00000068,0.00000023,-0.00000107,-0.00000113,0.00000029
 ,0.00000130,0.00000111,-0.00000026,0.00000213,0.00000098,0.00000015,0.
 00000197,-0.00000011,0.00000050,-0.00000186,0.00000228,-0.00000158,0.0
 0000004,0.00000095,-0.00000063,0.00000131,0.00000163,-0.00000046,0.000
 00218,0.00000091,0.00000014,0.00000208,-0.00000021,0.00000067,-0.00000
 016,0.00000253,-0.00000113,-0.00000063,0.00000239,-0.00000168,-0.00000
 058,0.00000156,-0.00000075,-0.00000115,0.00000160,-0.00000125\\\@


 SEEN ON A WALL AT THE UNIVERSITY OF ILLINOIS AT CHICAGO CIRCLE:

 TO DO IS TO BE  -- SOCRATES
 TO BE IS TO DO  -- SARTRE
 OO BE DO BE DO  -- SINATRA
 Job cpu time:       1 days  0 hours 36 minutes  4.6 seconds.
 File lengths (MBytes):  RWF=    863 Int=      0 D2E=      0 Chk=     15 Scr=      1
 Normal termination of Gaussian 09 at Fri Jun  3 21:40:36 2016.
