 Entering Gaussian System, Link 0=g09
 Input=ferrocene.01.com
 Output=ferrocene.01.log
 Initial command:
 /afs/crc.nd.edu/x86_64_linux/gaussian/09D01/pgi12.8/g09/l1.exe "/scratch/Gau-31878.inp" -scrdir="/scratch/"
 Entering Link 1 = /afs/crc.nd.edu/x86_64_linux/gaussian/09D01/pgi12.8/g09/l1.exe PID=     31879.
  
 Copyright (c) 1988,1990,1992,1993,1995,1998,2003,2009,2013,
            Gaussian, Inc.  All Rights Reserved.
  
 This is part of the Gaussian(R) 09 program.  It is based on
 the Gaussian(R) 03 system (copyright 2003, Gaussian, Inc.),
 the Gaussian(R) 98 system (copyright 1998, Gaussian, Inc.),
 the Gaussian(R) 94 system (copyright 1995, Gaussian, Inc.),
 the Gaussian 92(TM) system (copyright 1992, Gaussian, Inc.),
 the Gaussian 90(TM) system (copyright 1990, Gaussian, Inc.),
 the Gaussian 88(TM) system (copyright 1988, Gaussian, Inc.),
 the Gaussian 86(TM) system (copyright 1986, Carnegie Mellon
 University), and the Gaussian 82(TM) system (copyright 1983,
 Carnegie Mellon University). Gaussian is a federally registered
 trademark of Gaussian, Inc.
  
 This software contains proprietary and confidential information,
 including trade secrets, belonging to Gaussian, Inc.
  
 This software is provided under written license and may be
 used, copied, transmitted, or stored only in accord with that
 written license.
  
 The following legend is applicable only to US Government
 contracts under FAR:
  
                    RESTRICTED RIGHTS LEGEND
  
 Use, reproduction and disclosure by the US Government is
 subject to restrictions as set forth in subparagraphs (a)
 and (c) of the Commercial Computer Software - Restricted
 Rights clause in FAR 52.227-19.
  
 Gaussian, Inc.
 340 Quinnipiac St., Bldg. 40, Wallingford CT 06492
  
  
 ---------------------------------------------------------------
 Warning -- This program may not be used in any manner that
 competes with the business of Gaussian, Inc. or will provide
 assistance to any competitor of Gaussian, Inc.  The licensee
 of this program is prohibited from giving any competitor of
 Gaussian, Inc. access to this program.  By using this program,
 the user acknowledges that Gaussian, Inc. is engaged in the
 business of creating and licensing software in the field of
 computational chemistry and represents and warrants to the
 licensee that it is not a competitor of Gaussian, Inc. and that
 it will not use this program in any manner prohibited above.
 ---------------------------------------------------------------
  

 Cite this work as:
 Gaussian 09, Revision D.01,
 M. J. Frisch, G. W. Trucks, H. B. Schlegel, G. E. Scuseria, 
 M. A. Robb, J. R. Cheeseman, G. Scalmani, V. Barone, B. Mennucci, 
 G. A. Petersson, H. Nakatsuji, M. Caricato, X. Li, H. P. Hratchian, 
 A. F. Izmaylov, J. Bloino, G. Zheng, J. L. Sonnenberg, M. Hada, 
 M. Ehara, K. Toyota, R. Fukuda, J. Hasegawa, M. Ishida, T. Nakajima, 
 Y. Honda, O. Kitao, H. Nakai, T. Vreven, J. A. Montgomery, Jr., 
 J. E. Peralta, F. Ogliaro, M. Bearpark, J. J. Heyd, E. Brothers, 
 K. N. Kudin, V. N. Staroverov, T. Keith, R. Kobayashi, J. Normand, 
 K. Raghavachari, A. Rendell, J. C. Burant, S. S. Iyengar, J. Tomasi, 
 M. Cossi, N. Rega, J. M. Millam, M. Klene, J. E. Knox, J. B. Cross, 
 V. Bakken, C. Adamo, J. Jaramillo, R. Gomperts, R. E. Stratmann, 
 O. Yazyev, A. J. Austin, R. Cammi, C. Pomelli, J. W. Ochterski, 
 R. L. Martin, K. Morokuma, V. G. Zakrzewski, G. A. Voth, 
 P. Salvador, J. J. Dannenberg, S. Dapprich, A. D. Daniels, 
 O. Farkas, J. B. Foresman, J. V. Ortiz, J. Cioslowski, 
 and D. J. Fox, Gaussian, Inc., Wallingford CT, 2013.
 
 ******************************************
 Gaussian 09:  AM64L-G09RevD.01 24-Apr-2013
                28-Jun-2016 
 ******************************************
 %chk=ferrocene.01.chk
 %lindaworkers=localhost
 %mem=2gb
 %nprocs=8
 Will use up to    8 processors via shared memory.
 SetLPE:  input flags=""
 SetLPE:    new flags=" -nodelist 'localhost'"
 Will use up to    1 processors via Linda.
 ----------------------------------------------------------------------
 # Geom=Check Freq=NoRaman Pop=(ChelpG,ReadRadii) B3LYP/Gen Pseudo=Read
 ----------------------------------------------------------------------
 1/10=4,29=2,30=1,38=1/1,3;
 2/12=2,40=1/2;
 3/5=7,11=2,14=-4,16=1,17=8,25=1,30=1,71=2,74=-5,140=1/1,2,3;
 4//1;
 5/5=2,38=5,98=1/2;
 8/6=4,10=90,11=11/1;
 11/6=1,8=1,9=11,15=111,16=1/1,2,10;
 10/6=1/2;
 6/7=2,8=2,9=2,10=2,15=8,18=1,20=103,28=1/1,2;
 7/8=1,10=1,25=1/1,2,3,16;
 1/10=4,30=1/3;
 99//99;
 ---------
 ferrocene
 ---------
 Structure from the checkpoint file:  "ferrocene.01.chk"
 Charge =  0 Multiplicity = 1
 Redundant internal coordinates found in file.
 Fe,0,0.0010074052,0.0000000001,0.
 C,0,-1.214656837,-0.0000000003,1.6857491366
 C,0,-0.3753612971,1.1552590424,1.6862085523
 C,0,0.9827796328,0.7140266773,1.6869073108
 C,0,0.9827796329,-0.7140266771,1.6869073094
 C,0,-0.3753612969,-1.1552590427,1.6862085532
 H,0,-0.7098975812,2.183173207,1.6590727589
 H,0,1.8573928753,1.3495291846,1.6614044428
 H,0,1.8573928755,-1.3495291842,1.6614044381
 H,0,-0.7098975807,-2.1831732074,1.6590727596
 H,0,-2.2956751261,-0.0000000005,1.6580252432
 C,0,-1.214656837,0.0000000003,-1.6857491366
 C,0,-0.3753612971,-1.1552590424,-1.686208553
 C,0,0.9827796329,-0.7140266774,-1.6869073105
 C,0,0.9827796328,0.7140266771,-1.6869073097
 C,0,-0.375361297,1.1552590427,-1.6862085526
 H,0,-0.7098975812,-2.183173207,-1.6590727589
 H,0,1.8573928753,-1.3495291846,-1.6614044378
 H,0,1.8573928755,1.3495291842,-1.6614044431
 H,0,-0.7098975807,2.1831732074,-1.6590727596
 H,0,-2.2956751261,0.0000000004,-1.6580252432
 Recover connectivity data from disk.

 GradGradGradGradGradGradGradGradGradGradGradGradGradGradGradGradGradGrad
 Berny optimization.
 Initialization pass.
                           ----------------------------
                           !    Initial Parameters    !
                           ! (Angstroms and Degrees)  !
 --------------------------                            --------------------------
 ! Name  Definition              Value          Derivative Info.                !
 --------------------------------------------------------------------------------
 ! R1    R(1,2)                  2.0784         calculate D2E/DX2 analytically  !
 ! R2    R(1,3)                  2.0784         calculate D2E/DX2 analytically  !
 ! R3    R(1,4)                  2.0783         calculate D2E/DX2 analytically  !
 ! R4    R(1,5)                  2.0783         calculate D2E/DX2 analytically  !
 ! R5    R(1,6)                  2.0784         calculate D2E/DX2 analytically  !
 ! R6    R(1,12)                 2.0784         calculate D2E/DX2 analytically  !
 ! R7    R(1,13)                 2.0784         calculate D2E/DX2 analytically  !
 ! R8    R(1,14)                 2.0783         calculate D2E/DX2 analytically  !
 ! R9    R(1,15)                 2.0783         calculate D2E/DX2 analytically  !
 ! R10   R(1,16)                 2.0784         calculate D2E/DX2 analytically  !
 ! R11   R(2,3)                  1.4279         calculate D2E/DX2 analytically  !
 ! R12   R(2,6)                  1.4279         calculate D2E/DX2 analytically  !
 ! R13   R(2,11)                 1.0814         calculate D2E/DX2 analytically  !
 ! R14   R(3,4)                  1.428          calculate D2E/DX2 analytically  !
 ! R15   R(3,7)                  1.0813         calculate D2E/DX2 analytically  !
 ! R16   R(4,5)                  1.4281         calculate D2E/DX2 analytically  !
 ! R17   R(4,8)                  1.0814         calculate D2E/DX2 analytically  !
 ! R18   R(5,6)                  1.428          calculate D2E/DX2 analytically  !
 ! R19   R(5,9)                  1.0814         calculate D2E/DX2 analytically  !
 ! R20   R(6,10)                 1.0813         calculate D2E/DX2 analytically  !
 ! R21   R(12,13)                1.4279         calculate D2E/DX2 analytically  !
 ! R22   R(12,16)                1.4279         calculate D2E/DX2 analytically  !
 ! R23   R(12,21)                1.0814         calculate D2E/DX2 analytically  !
 ! R24   R(13,14)                1.428          calculate D2E/DX2 analytically  !
 ! R25   R(13,17)                1.0813         calculate D2E/DX2 analytically  !
 ! R26   R(14,15)                1.4281         calculate D2E/DX2 analytically  !
 ! R27   R(14,18)                1.0814         calculate D2E/DX2 analytically  !
 ! R28   R(15,16)                1.428          calculate D2E/DX2 analytically  !
 ! R29   R(15,19)                1.0814         calculate D2E/DX2 analytically  !
 ! R30   R(16,20)                1.0813         calculate D2E/DX2 analytically  !
 ! A1    A(2,1,4)               67.5401         calculate D2E/DX2 analytically  !
 ! A2    A(2,1,5)               67.5401         calculate D2E/DX2 analytically  !
 ! A3    A(2,1,12)             108.4061         calculate D2E/DX2 analytically  !
 ! A4    A(2,1,13)             123.5135         calculate D2E/DX2 analytically  !
 ! A5    A(2,1,14)             159.172          calculate D2E/DX2 analytically  !
 ! A6    A(2,1,15)             159.172          calculate D2E/DX2 analytically  !
 ! A7    A(2,1,16)             123.5135         calculate D2E/DX2 analytically  !
 ! A8    A(3,1,5)               67.5417         calculate D2E/DX2 analytically  !
 ! A9    A(3,1,6)               67.5388         calculate D2E/DX2 analytically  !
 ! A10   A(3,1,12)             123.5135         calculate D2E/DX2 analytically  !
 ! A11   A(3,1,13)             159.1336         calculate D2E/DX2 analytically  !
 ! A12   A(3,1,14)             159.2343         calculate D2E/DX2 analytically  !
 ! A13   A(3,1,15)             123.58           calculate D2E/DX2 analytically  !
 ! A14   A(3,1,16)             108.4497         calculate D2E/DX2 analytically  !
 ! A15   A(4,1,6)               67.5417         calculate D2E/DX2 analytically  !
 ! A16   A(4,1,12)             159.172          calculate D2E/DX2 analytically  !
 ! A17   A(4,1,13)             159.2343         calculate D2E/DX2 analytically  !
 ! A18   A(4,1,14)             123.6209         calculate D2E/DX2 analytically  !
 ! A19   A(4,1,15)             108.5194         calculate D2E/DX2 analytically  !
 ! A20   A(4,1,16)             123.58           calculate D2E/DX2 analytically  !
 ! A21   A(5,1,12)             159.172          calculate D2E/DX2 analytically  !
 ! A22   A(5,1,13)             123.58           calculate D2E/DX2 analytically  !
 ! A23   A(5,1,14)             108.5194         calculate D2E/DX2 analytically  !
 ! A24   A(5,1,15)             123.6209         calculate D2E/DX2 analytically  !
 ! A25   A(5,1,16)             159.2343         calculate D2E/DX2 analytically  !
 ! A26   A(6,1,12)             123.5135         calculate D2E/DX2 analytically  !
 ! A27   A(6,1,13)             108.4497         calculate D2E/DX2 analytically  !
 ! A28   A(6,1,14)             123.58           calculate D2E/DX2 analytically  !
 ! A29   A(6,1,15)             159.2343         calculate D2E/DX2 analytically  !
 ! A30   A(6,1,16)             159.1336         calculate D2E/DX2 analytically  !
 ! A31   A(12,1,14)             67.5401         calculate D2E/DX2 analytically  !
 ! A32   A(12,1,15)             67.5401         calculate D2E/DX2 analytically  !
 ! A33   A(13,1,15)             67.5417         calculate D2E/DX2 analytically  !
 ! A34   A(13,1,16)             67.5388         calculate D2E/DX2 analytically  !
 ! A35   A(14,1,16)             67.5417         calculate D2E/DX2 analytically  !
 ! A36   A(1,2,11)             124.3279         calculate D2E/DX2 analytically  !
 ! A37   A(3,2,6)              108.0032         calculate D2E/DX2 analytically  !
 ! A38   A(3,2,11)             125.9853         calculate D2E/DX2 analytically  !
 ! A39   A(6,2,11)             125.9853         calculate D2E/DX2 analytically  !
 ! A40   A(1,3,7)              124.3372         calculate D2E/DX2 analytically  !
 ! A41   A(2,3,4)              108.0005         calculate D2E/DX2 analytically  !
 ! A42   A(2,3,7)              125.9604         calculate D2E/DX2 analytically  !
 ! A43   A(4,3,7)              126.0132         calculate D2E/DX2 analytically  !
 ! A44   A(1,4,8)              124.389          calculate D2E/DX2 analytically  !
 ! A45   A(3,4,5)              107.9979         calculate D2E/DX2 analytically  !
 ! A46   A(3,4,8)              125.9872         calculate D2E/DX2 analytically  !
 ! A47   A(5,4,8)              125.9909         calculate D2E/DX2 analytically  !
 ! A48   A(1,5,9)              124.389          calculate D2E/DX2 analytically  !
 ! A49   A(4,5,6)              107.9979         calculate D2E/DX2 analytically  !
 ! A50   A(4,5,9)              125.9909         calculate D2E/DX2 analytically  !
 ! A51   A(6,5,9)              125.9872         calculate D2E/DX2 analytically  !
 ! A52   A(1,6,10)             124.3372         calculate D2E/DX2 analytically  !
 ! A53   A(2,6,5)              108.0005         calculate D2E/DX2 analytically  !
 ! A54   A(2,6,10)             125.9604         calculate D2E/DX2 analytically  !
 ! A55   A(5,6,10)             126.0132         calculate D2E/DX2 analytically  !
 ! A56   A(1,12,21)            124.3279         calculate D2E/DX2 analytically  !
 ! A57   A(13,12,16)           108.0032         calculate D2E/DX2 analytically  !
 ! A58   A(13,12,21)           125.9853         calculate D2E/DX2 analytically  !
 ! A59   A(16,12,21)           125.9853         calculate D2E/DX2 analytically  !
 ! A60   A(1,13,17)            124.3372         calculate D2E/DX2 analytically  !
 ! A61   A(12,13,14)           108.0005         calculate D2E/DX2 analytically  !
 ! A62   A(12,13,17)           125.9604         calculate D2E/DX2 analytically  !
 ! A63   A(14,13,17)           126.0132         calculate D2E/DX2 analytically  !
 ! A64   A(1,14,18)            124.389          calculate D2E/DX2 analytically  !
 ! A65   A(13,14,15)           107.9979         calculate D2E/DX2 analytically  !
 ! A66   A(13,14,18)           125.9872         calculate D2E/DX2 analytically  !
 ! A67   A(15,14,18)           125.9909         calculate D2E/DX2 analytically  !
 ! A68   A(1,15,19)            124.389          calculate D2E/DX2 analytically  !
 ! A69   A(14,15,16)           107.9979         calculate D2E/DX2 analytically  !
 ! A70   A(14,15,19)           125.9909         calculate D2E/DX2 analytically  !
 ! A71   A(16,15,19)           125.9872         calculate D2E/DX2 analytically  !
 ! A72   A(1,16,20)            124.3372         calculate D2E/DX2 analytically  !
 ! A73   A(12,16,15)           108.0005         calculate D2E/DX2 analytically  !
 ! A74   A(12,16,20)           125.9604         calculate D2E/DX2 analytically  !
 ! A75   A(15,16,20)           126.0132         calculate D2E/DX2 analytically  !
 ! D1    D(4,1,2,11)           158.1758         calculate D2E/DX2 analytically  !
 ! D2    D(5,1,2,11)          -158.1758         calculate D2E/DX2 analytically  !
 ! D3    D(12,1,2,11)            0.0            calculate D2E/DX2 analytically  !
 ! D4    D(13,1,2,11)          -41.8116         calculate D2E/DX2 analytically  !
 ! D5    D(14,1,2,11)          -75.0702         calculate D2E/DX2 analytically  !
 ! D6    D(15,1,2,11)           75.0702         calculate D2E/DX2 analytically  !
 ! D7    D(16,1,2,11)           41.8116         calculate D2E/DX2 analytically  !
 ! D8    D(5,1,3,7)            158.2103         calculate D2E/DX2 analytically  !
 ! D9    D(6,1,3,7)           -158.143          calculate D2E/DX2 analytically  !
 ! D10   D(12,1,3,7)           -41.8597         calculate D2E/DX2 analytically  !
 ! D11   D(13,1,3,7)           -75.2154         calculate D2E/DX2 analytically  !
 ! D12   D(14,1,3,7)            75.1463         calculate D2E/DX2 analytically  !
 ! D13   D(15,1,3,7)            41.8047         calculate D2E/DX2 analytically  !
 ! D14   D(16,1,3,7)            -0.0211         calculate D2E/DX2 analytically  !
 ! D15   D(2,1,4,8)           -158.1748         calculate D2E/DX2 analytically  !
 ! D16   D(6,1,4,8)            158.1814         calculate D2E/DX2 analytically  !
 ! D17   D(12,1,4,8)           -75.3989         calculate D2E/DX2 analytically  !
 ! D18   D(13,1,4,8)            75.3209         calculate D2E/DX2 analytically  !
 ! D19   D(14,1,4,8)            41.8307         calculate D2E/DX2 analytically  !
 ! D20   D(15,1,4,8)            -0.0306         calculate D2E/DX2 analytically  !
 ! D21   D(16,1,4,8)           -41.8998         calculate D2E/DX2 analytically  !
 ! D22   D(2,1,5,9)            158.1748         calculate D2E/DX2 analytically  !
 ! D23   D(3,1,5,9)           -158.1814         calculate D2E/DX2 analytically  !
 ! D24   D(12,1,5,9)            75.3989         calculate D2E/DX2 analytically  !
 ! D25   D(13,1,5,9)            41.8998         calculate D2E/DX2 analytically  !
 ! D26   D(14,1,5,9)             0.0306         calculate D2E/DX2 analytically  !
 ! D27   D(15,1,5,9)           -41.8307         calculate D2E/DX2 analytically  !
 ! D28   D(16,1,5,9)           -75.3209         calculate D2E/DX2 analytically  !
 ! D29   D(3,1,6,10)           158.143          calculate D2E/DX2 analytically  !
 ! D30   D(4,1,6,10)          -158.2103         calculate D2E/DX2 analytically  !
 ! D31   D(12,1,6,10)           41.8597         calculate D2E/DX2 analytically  !
 ! D32   D(13,1,6,10)            0.0211         calculate D2E/DX2 analytically  !
 ! D33   D(14,1,6,10)          -41.8047         calculate D2E/DX2 analytically  !
 ! D34   D(15,1,6,10)          -75.1463         calculate D2E/DX2 analytically  !
 ! D35   D(16,1,6,10)           75.2154         calculate D2E/DX2 analytically  !
 ! D36   D(2,1,12,21)            0.0            calculate D2E/DX2 analytically  !
 ! D37   D(3,1,12,21)          -41.8116         calculate D2E/DX2 analytically  !
 ! D38   D(4,1,12,21)          -75.0702         calculate D2E/DX2 analytically  !
 ! D39   D(5,1,12,21)           75.0702         calculate D2E/DX2 analytically  !
 ! D40   D(6,1,12,21)           41.8116         calculate D2E/DX2 analytically  !
 ! D41   D(14,1,12,21)         158.1758         calculate D2E/DX2 analytically  !
 ! D42   D(15,1,12,21)        -158.1758         calculate D2E/DX2 analytically  !
 ! D43   D(2,1,13,17)          -41.8597         calculate D2E/DX2 analytically  !
 ! D44   D(3,1,13,17)          -75.2154         calculate D2E/DX2 analytically  !
 ! D45   D(4,1,13,17)           75.1463         calculate D2E/DX2 analytically  !
 ! D46   D(5,1,13,17)           41.8047         calculate D2E/DX2 analytically  !
 ! D47   D(6,1,13,17)           -0.0211         calculate D2E/DX2 analytically  !
 ! D48   D(15,1,13,17)         158.2103         calculate D2E/DX2 analytically  !
 ! D49   D(16,1,13,17)        -158.143          calculate D2E/DX2 analytically  !
 ! D50   D(2,1,14,18)          -75.3989         calculate D2E/DX2 analytically  !
 ! D51   D(3,1,14,18)           75.3209         calculate D2E/DX2 analytically  !
 ! D52   D(4,1,14,18)           41.8307         calculate D2E/DX2 analytically  !
 ! D53   D(5,1,14,18)           -0.0306         calculate D2E/DX2 analytically  !
 ! D54   D(6,1,14,18)          -41.8998         calculate D2E/DX2 analytically  !
 ! D55   D(12,1,14,18)        -158.1748         calculate D2E/DX2 analytically  !
 ! D56   D(16,1,14,18)         158.1814         calculate D2E/DX2 analytically  !
 ! D57   D(2,1,15,19)           75.3989         calculate D2E/DX2 analytically  !
 ! D58   D(3,1,15,19)           41.8998         calculate D2E/DX2 analytically  !
 ! D59   D(4,1,15,19)            0.0306         calculate D2E/DX2 analytically  !
 ! D60   D(5,1,15,19)          -41.8307         calculate D2E/DX2 analytically  !
 ! D61   D(6,1,15,19)          -75.3209         calculate D2E/DX2 analytically  !
 ! D62   D(12,1,15,19)         158.1748         calculate D2E/DX2 analytically  !
 ! D63   D(13,1,15,19)        -158.1814         calculate D2E/DX2 analytically  !
 ! D64   D(2,1,16,20)           41.8597         calculate D2E/DX2 analytically  !
 ! D65   D(3,1,16,20)            0.0211         calculate D2E/DX2 analytically  !
 ! D66   D(4,1,16,20)          -41.8047         calculate D2E/DX2 analytically  !
 ! D67   D(5,1,16,20)          -75.1463         calculate D2E/DX2 analytically  !
 ! D68   D(6,1,16,20)           75.2154         calculate D2E/DX2 analytically  !
 ! D69   D(13,1,16,20)         158.143          calculate D2E/DX2 analytically  !
 ! D70   D(14,1,16,20)        -158.2103         calculate D2E/DX2 analytically  !
 ! D71   D(6,2,3,4)              0.0019         calculate D2E/DX2 analytically  !
 ! D72   D(6,2,3,7)            178.2353         calculate D2E/DX2 analytically  !
 ! D73   D(11,2,3,4)          -178.2212         calculate D2E/DX2 analytically  !
 ! D74   D(11,2,3,7)             0.0122         calculate D2E/DX2 analytically  !
 ! D75   D(3,2,6,5)             -0.0019         calculate D2E/DX2 analytically  !
 ! D76   D(3,2,6,10)          -178.2353         calculate D2E/DX2 analytically  !
 ! D77   D(11,2,6,5)           178.2212         calculate D2E/DX2 analytically  !
 ! D78   D(11,2,6,10)           -0.0122         calculate D2E/DX2 analytically  !
 ! D79   D(2,3,4,5)             -0.0012         calculate D2E/DX2 analytically  !
 ! D80   D(2,3,4,8)            178.2992         calculate D2E/DX2 analytically  !
 ! D81   D(7,3,4,5)           -178.2334         calculate D2E/DX2 analytically  !
 ! D82   D(7,3,4,8)              0.067          calculate D2E/DX2 analytically  !
 ! D83   D(3,4,5,6)              0.0            calculate D2E/DX2 analytically  !
 ! D84   D(3,4,5,9)            178.3003         calculate D2E/DX2 analytically  !
 ! D85   D(8,4,5,6)           -178.3003         calculate D2E/DX2 analytically  !
 ! D86   D(8,4,5,9)              0.0            calculate D2E/DX2 analytically  !
 ! D87   D(4,5,6,2)              0.0012         calculate D2E/DX2 analytically  !
 ! D88   D(4,5,6,10)           178.2334         calculate D2E/DX2 analytically  !
 ! D89   D(9,5,6,2)           -178.2992         calculate D2E/DX2 analytically  !
 ! D90   D(9,5,6,10)            -0.067          calculate D2E/DX2 analytically  !
 ! D91   D(16,12,13,14)          0.0019         calculate D2E/DX2 analytically  !
 ! D92   D(16,12,13,17)        178.2353         calculate D2E/DX2 analytically  !
 ! D93   D(21,12,13,14)       -178.2212         calculate D2E/DX2 analytically  !
 ! D94   D(21,12,13,17)          0.0122         calculate D2E/DX2 analytically  !
 ! D95   D(13,12,16,15)         -0.0019         calculate D2E/DX2 analytically  !
 ! D96   D(13,12,16,20)       -178.2353         calculate D2E/DX2 analytically  !
 ! D97   D(21,12,16,15)        178.2212         calculate D2E/DX2 analytically  !
 ! D98   D(21,12,16,20)         -0.0122         calculate D2E/DX2 analytically  !
 ! D99   D(12,13,14,15)         -0.0012         calculate D2E/DX2 analytically  !
 ! D100  D(12,13,14,18)        178.2992         calculate D2E/DX2 analytically  !
 ! D101  D(17,13,14,15)       -178.2334         calculate D2E/DX2 analytically  !
 ! D102  D(17,13,14,18)          0.067          calculate D2E/DX2 analytically  !
 ! D103  D(13,14,15,16)          0.0            calculate D2E/DX2 analytically  !
 ! D104  D(13,14,15,19)        178.3003         calculate D2E/DX2 analytically  !
 ! D105  D(18,14,15,16)       -178.3003         calculate D2E/DX2 analytically  !
 ! D106  D(18,14,15,19)          0.0            calculate D2E/DX2 analytically  !
 ! D107  D(14,15,16,12)          0.0012         calculate D2E/DX2 analytically  !
 ! D108  D(14,15,16,20)        178.2334         calculate D2E/DX2 analytically  !
 ! D109  D(19,15,16,12)       -178.2992         calculate D2E/DX2 analytically  !
 ! D110  D(19,15,16,20)         -0.067          calculate D2E/DX2 analytically  !
 --------------------------------------------------------------------------------
 Trust Radius=3.00D-01 FncErr=1.00D-07 GrdErr=1.00D-07
 Number of steps in this run=      2 maximum allowed number of steps=      2.
 GradGradGradGradGradGradGradGradGradGradGradGradGradGradGradGradGradGrad

                          Input orientation:                          
 ---------------------------------------------------------------------
 Center     Atomic      Atomic             Coordinates (Angstroms)
 Number     Number       Type             X           Y           Z
 ---------------------------------------------------------------------
      1         26           0        0.001007    0.000000    0.000000
      2          6           0       -1.214657    0.000000    1.685749
      3          6           0       -0.375361    1.155259    1.686209
      4          6           0        0.982780    0.714027    1.686907
      5          6           0        0.982780   -0.714027    1.686907
      6          6           0       -0.375361   -1.155259    1.686209
      7          1           0       -0.709898    2.183173    1.659073
      8          1           0        1.857393    1.349529    1.661404
      9          1           0        1.857393   -1.349529    1.661404
     10          1           0       -0.709898   -2.183173    1.659073
     11          1           0       -2.295675    0.000000    1.658025
     12          6           0       -1.214657    0.000000   -1.685749
     13          6           0       -0.375361   -1.155259   -1.686209
     14          6           0        0.982780   -0.714027   -1.686907
     15          6           0        0.982780    0.714027   -1.686907
     16          6           0       -0.375361    1.155259   -1.686209
     17          1           0       -0.709898   -2.183173   -1.659073
     18          1           0        1.857393   -1.349529   -1.661404
     19          1           0        1.857393    1.349529   -1.661404
     20          1           0       -0.709898    2.183173   -1.659073
     21          1           0       -2.295675    0.000000   -1.658025
 ---------------------------------------------------------------------
                    Distance matrix (angstroms):
                    1          2          3          4          5
     1  Fe   0.000000
     2  C    2.078362   0.000000
     3  C    2.078359   1.427950   0.000000
     4  C    2.078309   2.310533   1.428017   0.000000
     5  C    2.078309   2.310533   2.310579   1.428053   0.000000
     6  C    2.078359   1.427950   2.310518   2.310579   1.428017
     7  H    2.832694   2.240924   1.081323   2.241500   3.355547
     8  H    2.833313   3.355490   2.241327   1.081417   2.241397
     9  H    2.833313   3.355490   3.355558   2.241397   1.081417
    10  H    2.832694   2.240924   3.355262   3.355547   2.241500
    11  H    2.832631   1.081374   2.241210   3.355433   3.355433
    12  C    2.078362   3.371498   3.661849   4.088199   4.088199
    13  C    2.078359   3.661849   4.087994   4.088604   3.662942
    14  C    2.078309   4.088199   4.088604   3.663600   3.373815
    15  C    2.078309   4.088199   3.662942   3.373815   3.663600
    16  C    2.078359   3.661849   3.372417   3.662942   4.088604
    17  H    2.832694   4.026023   4.737927   4.738619   4.027298
    18  H    2.833313   4.739426   4.739796   4.029194   3.518523
    19  H    2.833313   4.739426   4.028579   3.518523   4.029194
    20  H    2.832694   4.026023   3.515598   4.027298   4.738619
    21  H    2.832631   3.514175   4.025684   4.737792   4.737792
                    6          7          8          9         10
     6  C    0.000000
     7  H    3.355262   0.000000
     8  H    3.355558   2.699250   0.000000
     9  H    2.241327   4.367032   2.699058   0.000000
    10  H    1.081323   4.366346   4.367032   2.699250   0.000000
    11  H    2.241210   2.698321   4.366831   4.366831   2.698321
    12  C    3.661849   4.026023   4.739426   4.739426   4.026023
    13  C    3.372417   4.737927   4.739796   4.028579   3.515598
    14  C    3.662942   4.738619   4.029194   3.518523   4.027298
    15  C    4.088604   4.027298   3.518523   4.029194   4.738619
    16  C    4.087994   3.515598   4.028579   4.739796   4.737927
    17  H    3.515598   5.484074   5.486031   4.279195   3.318146
    18  H    4.028579   5.486031   4.280885   3.322809   4.279195
    19  H    4.739796   4.279195   3.322809   4.280885   5.486031
    20  H    4.737927   3.318146   4.279195   5.486031   5.484074
    21  H    4.025684   4.275988   5.485236   5.485236   4.275988
                   11         12         13         14         15
    11  H    0.000000
    12  C    3.514175   0.000000
    13  C    4.025684   1.427950   0.000000
    14  C    4.737792   2.310533   1.428017   0.000000
    15  C    4.737792   2.310533   2.310579   1.428053   0.000000
    16  C    4.025684   1.427950   2.310518   2.310579   1.428017
    17  H    4.275988   2.240924   1.081323   2.241500   3.355547
    18  H    5.485236   3.355490   2.241327   1.081417   2.241397
    19  H    5.485236   3.355490   3.355558   2.241397   1.081417
    20  H    4.275988   2.240924   3.355262   3.355547   2.241500
    21  H    3.316050   1.081374   2.241210   3.355433   3.355433
                   16         17         18         19         20
    16  C    0.000000
    17  H    3.355262   0.000000
    18  H    3.355558   2.699250   0.000000
    19  H    2.241327   4.367032   2.699058   0.000000
    20  H    1.081323   4.366346   4.367032   2.699250   0.000000
    21  H    2.241210   2.698321   4.366831   4.366831   2.698321
                   21
    21  H    0.000000
 Stoichiometry    C10H10Fe
 Framework group  CS[SG(Fe),X(C10H10)]
 Deg. of freedom    29
 Full point group                 CS      NOp   2
 Largest Abelian subgroup         CS      NOp   2
 Largest concise Abelian subgroup CS      NOp   2
                         Standard orientation:                         
 ---------------------------------------------------------------------
 Center     Atomic      Atomic             Coordinates (Angstroms)
 Number     Number       Type             X           Y           Z
 ---------------------------------------------------------------------
      1         26           0        0.000726    0.000000    0.000000
      2          6           0       -1.214938    0.000000    1.685749
      3          6           0       -0.375642    1.155259    1.686209
      4          6           0        0.982499    0.714027    1.686907
      5          6           0        0.982499   -0.714027    1.686907
      6          6           0       -0.375642   -1.155259    1.686209
      7          1           0       -0.710179    2.183173    1.659073
      8          1           0        1.857112    1.349529    1.661404
      9          1           0        1.857112   -1.349529    1.661404
     10          1           0       -0.710179   -2.183173    1.659073
     11          1           0       -2.295956    0.000000    1.658025
     12          6           0       -1.214938    0.000000   -1.685749
     13          6           0       -0.375642   -1.155259   -1.686209
     14          6           0        0.982499   -0.714027   -1.686907
     15          6           0        0.982499    0.714027   -1.686907
     16          6           0       -0.375642    1.155259   -1.686209
     17          1           0       -0.710179   -2.183173   -1.659073
     18          1           0        1.857112   -1.349529   -1.661404
     19          1           0        1.857112    1.349529   -1.661404
     20          1           0       -0.710179    2.183173   -1.659073
     21          1           0       -2.295956    0.000000   -1.658025
 ---------------------------------------------------------------------
 Rotational constants (GHZ):      2.1955293      1.0438982      1.0438865
 General basis read from cards:  (5D, 7F)
 ======================================================================================================
                                       Pseudopotential Parameters
 ======================================================================================================
  Center     Atomic      Valence      Angular      Power
  Number     Number     Electrons     Momentum     of R      Exponent        Coefficient   SO-Coeffient
 ======================================================================================================
    1         26           16
                                      D and up 
                                                     1      392.6149787      -10.00000000    0.00000000
                                                     2       71.1756979      -63.26675180    0.00000000
                                                     2       17.7320281      -10.96133380    0.00000000
                                      S - D
                                                     0      126.0571895        3.00000000    0.00000000
                                                     1      138.1264251       18.17291370    0.00000000
                                                     2       54.2098858      339.12311640    0.00000000
                                                     2        9.2837966      317.10680120    0.00000000
                                                     2        8.6289082     -207.34216490    0.00000000
                                      P - D
                                                     0       83.1759490        5.00000000    0.00000000
                                                     1      106.0559938        5.95359300    0.00000000
                                                     2       42.8284937      294.26655270    0.00000000
                                                     2        8.7701805      154.42446350    0.00000000
                                                     2        8.0397818      -95.31642490    0.00000000
    2          6
                                   No pseudopotential on this center.
    3          6
                                   No pseudopotential on this center.
    4          6
                                   No pseudopotential on this center.
    5          6
                                   No pseudopotential on this center.
    6          6
                                   No pseudopotential on this center.
    7          1
                                   No pseudopotential on this center.
    8          1
                                   No pseudopotential on this center.
    9          1
                                   No pseudopotential on this center.
   10          1
                                   No pseudopotential on this center.
   11          1
                                   No pseudopotential on this center.
   12          6
                                   No pseudopotential on this center.
   13          6
                                   No pseudopotential on this center.
   14          6
                                   No pseudopotential on this center.
   15          6
                                   No pseudopotential on this center.
   16          6
                                   No pseudopotential on this center.
   17          1
                                   No pseudopotential on this center.
   18          1
                                   No pseudopotential on this center.
   19          1
                                   No pseudopotential on this center.
   20          1
                                   No pseudopotential on this center.
   21          1
                                   No pseudopotential on this center.
 ======================================================================================================
 There are   117 symmetry adapted cartesian basis functions of A'  symmetry.
 There are   107 symmetry adapted cartesian basis functions of A"  symmetry.
 There are   110 symmetry adapted basis functions of A'  symmetry.
 There are   102 symmetry adapted basis functions of A"  symmetry.
   212 basis functions,   402 primitive gaussians,   224 cartesian basis functions
    43 alpha electrons       43 beta electrons
       nuclear repulsion energy       738.0122177231 Hartrees.
 NAtoms=   21 NActive=   21 NUniq=   11 SFac= 3.64D+00 NAtFMM=   60 NAOKFM=F Big=F
 Integral buffers will be    131072 words long.
 Raffenetti 2 integral format.
 Two-electron integral symmetry is turned on.
 One-electron integrals computed using PRISM.
   2 Symmetry operations used in ECPInt.
 ECPInt:  NShTT=    3081 NPrTT=   15978 LenC2=    3037 LenP2D=   11668.
 LDataN:  DoStor=T MaxTD1= 4 Len=   56
 NBasis=   212 RedAO= T EigKep=  8.22D-04  NBF=   110   102
 NBsUse=   212 1.00D-06 EigRej= -1.00D+00 NBFU=   110   102
 ExpMin= 2.20D-02 ExpMax= 3.05D+03 ExpMxC= 4.57D+02 IAcc=3 IRadAn=         5 AccDes= 0.00D+00
 Harris functional with IExCor=  402 and IRadAn=       5 diagonalized for initial guess.
 HarFok:  IExCor=  402 AccDes= 0.00D+00 IRadAn=         5 IDoV= 1 UseB2=F ITyADJ=14
 ICtDFT=  3500011 ScaDFX=  1.000000  1.000000  1.000000  1.000000
 FoFCou: FMM=F IPFlag=           0 FMFlag=      100000 FMFlg1=           0
         NFxFlg=           0 DoJE=T BraDBF=F KetDBF=T FulRan=T
         wScrn=  0.000000 ICntrl=     500 IOpCl=  0 I1Cent=   200000004 NGrid=           0
         NMat0=    1 NMatS0=      1 NMatT0=    0 NMatD0=    1 NMtDS0=    0 NMtDT0=    0
 Petite list used in FoFCou.
 Initial guess orbital symmetries:
       Occupied  (A") (A') (A") (A") (A') (A') (A") (A') (A") (A')
                 (A') (A") (A') (A') (A') (A") (A") (A") (A') (A')
                 (A') (A') (A") (A") (A') (A") (A') (A") (A") (A')
                 (A') (A') (A') (A") (A") (A") (A") (A") (A') (A')
                 (A') (A') (A')
       Virtual   (A") (A") (A") (A") (A') (A') (A') (A') (A') (A")
                 (A") (A') (A') (A') (A') (A') (A") (A") (A") (A")
                 (A") (A") (A') (A') (A') (A') (A') (A') (A") (A")
                 (A") (A') (A') (A") (A") (A") (A') (A') (A") (A")
                 (A') (A') (A') (A') (A') (A") (A") (A") (A") (A")
                 (A') (A') (A') (A') (A') (A") (A") (A") (A") (A")
                 (A') (A') (A') (A") (A') (A') (A') (A") (A') (A")
                 (A") (A') (A') (A') (A') (A") (A") (A') (A') (A")
                 (A") (A") (A") (A") (A") (A") (A') (A') (A') (A')
                 (A') (A") (A") (A") (A') (A') (A") (A') (A') (A")
                 (A") (A") (A') (A') (A') (A') (A") (A") (A") (A")
                 (A") (A") (A") (A") (A') (A') (A') (A') (A') (A')
                 (A") (A") (A') (A') (A") (A") (A') (A') (A") (A")
                 (A') (A') (A') (A') (A') (A") (A") (A') (A") (A")
                 (A") (A") (A') (A") (A") (A") (A') (A') (A') (A')
                 (A") (A") (A') (A') (A") (A") (A') (A") (A') (A")
                 (A") (A") (A') (A') (A') (A') (A") (A") (A')
 The electronic state of the initial guess is 1-A'.
 Requested convergence on RMS density matrix=1.00D-08 within 128 cycles.
 Requested convergence on MAX density matrix=1.00D-06.
 Requested convergence on             energy=1.00D-06.
 No special actions if energy rises.
 EnCoef did     2 forward-backward iterations
 EnCoef did     2 forward-backward iterations
 SCF Done:  E(RB3LYP) =  -510.527677264     A.U. after   12 cycles
            NFock= 12  Conv=0.58D-08     -V/T= 2.1223
 DoSCS=F DFT=T ScalE2(SS,OS)=  1.000000  1.000000
 Range of M.O.s used for correlation:     1   212
 NBasis=   212 NAE=    43 NBE=    43 NFC=     0 NFV=     0
 NROrb=    212 NOA=    43 NOB=    43 NVA=   169 NVB=   169

 **** Warning!!: The largest alpha MO coefficient is  0.13976728D+02

   2 Symmetry operations used in ECPInt.
 ECPInt:  NShTT=    3081 NPrTT=   15978 LenC2=    3037 LenP2D=   11668.
 LDataN:  DoStor=T MaxTD1= 5 Len=  102
 Symmetrizing basis deriv contribution to polar:
 IMax=3 JMax=2 DiffMx= 0.00D+00
 G2DrvN: will do    22 centers at a time, making    1 passes.
 Calling FoFCou, ICntrl=  3107 FMM=F I1Cent=   0 AccDes= 0.00D+00.
 End of G2Drv F.D. properties file   721 does not exist.
 End of G2Drv F.D. properties file   722 does not exist.
 End of G2Drv F.D. properties file   788 does not exist.
          IDoAtm=111111111111111111111
          Differentiating once with respect to electric field.
                with respect to dipole field.
          Differentiating once with respect to nuclear coordinates.
          There are    36 degrees of freedom in the 1st order CPHF.  IDoFFX=4 NUNeed=    36.
     36 vectors produced by pass  0 Test12= 2.02D-14 2.78D-09 XBig12= 1.63D+02 7.08D+00.
 AX will form    36 AO Fock derivatives at one time.
     36 vectors produced by pass  1 Test12= 2.02D-14 2.78D-09 XBig12= 2.64D+01 1.12D+00.
     36 vectors produced by pass  2 Test12= 2.02D-14 2.78D-09 XBig12= 1.95D+00 3.09D-01.
     36 vectors produced by pass  3 Test12= 2.02D-14 2.78D-09 XBig12= 3.76D-02 3.81D-02.
     36 vectors produced by pass  4 Test12= 2.02D-14 2.78D-09 XBig12= 4.22D-04 5.38D-03.
     36 vectors produced by pass  5 Test12= 2.02D-14 2.78D-09 XBig12= 2.48D-06 2.97D-04.
     25 vectors produced by pass  6 Test12= 2.02D-14 2.78D-09 XBig12= 5.62D-09 2.05D-05.
      7 vectors produced by pass  7 Test12= 2.02D-14 2.78D-09 XBig12= 8.18D-12 6.03D-07.
      3 vectors produced by pass  8 Test12= 2.02D-14 2.78D-09 XBig12= 9.45D-15 2.32D-08.
 InvSVY:  IOpt=1 It=  1 EMax= 1.78D-15
 Solved reduced A of dimension   251 with    36 vectors.
 Isotropic polarizability for W=    0.000000      108.15 Bohr**3.
 End of Minotr F.D. properties file   721 does not exist.
 End of Minotr F.D. properties file   722 does not exist.
 End of Minotr F.D. properties file   788 does not exist.

 **********************************************************************

            Population analysis using the SCF density.

 **********************************************************************

 Orbital symmetries:
       Occupied  (A") (A') (A") (A") (A') (A') (A") (A") (A') (A')
                 (A') (A") (A') (A') (A') (A") (A") (A") (A') (A')
                 (A') (A') (A") (A") (A') (A") (A') (A") (A") (A')
                 (A') (A') (A') (A") (A") (A") (A") (A") (A') (A')
                 (A') (A') (A')
       Virtual   (A") (A") (A') (A') (A") (A') (A") (A") (A') (A')
                 (A") (A') (A') (A') (A") (A") (A") (A") (A') (A')
                 (A') (A') (A") (A") (A') (A') (A') (A') (A") (A")
                 (A") (A') (A') (A") (A") (A") (A') (A') (A') (A")
                 (A") (A') (A') (A') (A') (A") (A") (A") (A") (A")
                 (A') (A') (A') (A') (A') (A") (A") (A") (A") (A")
                 (A') (A') (A') (A') (A') (A") (A') (A") (A') (A")
                 (A") (A') (A') (A') (A') (A") (A") (A') (A') (A")
                 (A") (A") (A") (A") (A") (A") (A') (A') (A') (A')
                 (A') (A") (A") (A") (A') (A') (A") (A') (A') (A")
                 (A") (A") (A') (A') (A') (A') (A") (A") (A") (A")
                 (A") (A") (A") (A") (A') (A') (A') (A') (A') (A')
                 (A") (A") (A') (A') (A") (A") (A") (A') (A') (A')
                 (A') (A") (A") (A') (A') (A') (A") (A') (A") (A")
                 (A") (A") (A') (A") (A") (A") (A') (A') (A') (A')
                 (A") (A") (A') (A') (A") (A") (A') (A") (A') (A")
                 (A") (A") (A') (A') (A') (A') (A") (A") (A')
 The electronic state is 1-A'.
 Alpha  occ. eigenvalues --  -10.18746 -10.18738 -10.18712 -10.18712 -10.18711
 Alpha  occ. eigenvalues --  -10.18711 -10.18670 -10.18670 -10.18669 -10.18669
 Alpha  occ. eigenvalues --   -3.43976  -2.25047  -2.20122  -2.20122  -0.88622
 Alpha  occ. eigenvalues --   -0.87064  -0.70712  -0.70712  -0.70605  -0.70605
 Alpha  occ. eigenvalues --   -0.54210  -0.54207  -0.53446  -0.53441  -0.53147
 Alpha  occ. eigenvalues --   -0.51855  -0.40640  -0.40425  -0.40424  -0.39625
 Alpha  occ. eigenvalues --   -0.39624  -0.37568  -0.37564  -0.37123  -0.37119
 Alpha  occ. eigenvalues --   -0.35469  -0.26400  -0.26399  -0.24398  -0.24398
 Alpha  occ. eigenvalues --   -0.23412  -0.19593  -0.19591
 Alpha virt. eigenvalues --   -0.00114  -0.00114   0.01640   0.01642   0.02735
 Alpha virt. eigenvalues --    0.05897   0.07288   0.07293   0.07319   0.07322
 Alpha virt. eigenvalues --    0.14240   0.15828   0.15829   0.16599   0.18446
 Alpha virt. eigenvalues --    0.18459   0.18469   0.18471   0.20832   0.20838
 Alpha virt. eigenvalues --    0.22697   0.22701   0.24682   0.24684   0.26769
 Alpha virt. eigenvalues --    0.26771   0.32659   0.32663   0.34323   0.35572
 Alpha virt. eigenvalues --    0.35577   0.41253   0.43514   0.44460   0.49801
 Alpha virt. eigenvalues --    0.49802   0.54522   0.54527   0.58482   0.59326
 Alpha virt. eigenvalues --    0.59330   0.60839   0.60840   0.61940   0.61947
 Alpha virt. eigenvalues --    0.63251   0.71814   0.71816   0.76408   0.76409
 Alpha virt. eigenvalues --    0.78484   0.78485   0.78532   0.78533   0.78686
 Alpha virt. eigenvalues --    0.82461   0.82465   0.83927   0.83939   0.84797
 Alpha virt. eigenvalues --    0.85854   0.86770   0.86775   0.87096   0.87097
 Alpha virt. eigenvalues --    0.88358   0.89445   0.96778   1.02842   1.06221
 Alpha virt. eigenvalues --    1.06228   1.11844   1.11858   1.13095   1.13096
 Alpha virt. eigenvalues --    1.17274   1.17274   1.19657   1.19671   1.24204
 Alpha virt. eigenvalues --    1.24205   1.24802   1.24863   1.26536   1.35084
 Alpha virt. eigenvalues --    1.35104   1.36116   1.36156   1.42469   1.42471
 Alpha virt. eigenvalues --    1.47535   1.48788   1.52189   1.52233   1.67454
 Alpha virt. eigenvalues --    1.67494   1.72717   1.80033   1.83700   1.85162
 Alpha virt. eigenvalues --    1.85181   1.86858   1.87588   1.87601   1.93994
 Alpha virt. eigenvalues --    1.94006   1.94581   1.94585   2.02989   2.02990
 Alpha virt. eigenvalues --    2.08607   2.08638   2.11878   2.11879   2.13115
 Alpha virt. eigenvalues --    2.13123   2.13997   2.14003   2.18669   2.18723
 Alpha virt. eigenvalues --    2.32640   2.32640   2.40173   2.40174   2.42737
 Alpha virt. eigenvalues --    2.42758   2.42811   2.44058   2.44089   2.44962
 Alpha virt. eigenvalues --    2.44963   2.45471   2.45473   2.47543   2.47556
 Alpha virt. eigenvalues --    2.47907   2.47917   2.49149   2.52340   2.52341
 Alpha virt. eigenvalues --    2.53177   2.53198   2.53431   2.55328   2.72022
 Alpha virt. eigenvalues --    2.72025   2.73362   2.73362   2.77555   2.77579
 Alpha virt. eigenvalues --    2.80931   2.80960   2.94305   2.94310   2.96865
 Alpha virt. eigenvalues --    2.96866   3.22280   3.24609   3.28334   3.28707
 Alpha virt. eigenvalues --    3.29004   3.29009   3.29104   3.29107   3.80024
 Alpha virt. eigenvalues --    3.80040   3.81531   3.81534   8.35967
          Condensed to atoms (all electrons):
               1          2          3          4          5          6
     1  Fe  15.193414   0.091839   0.091800   0.091820   0.091820   0.091800
     2  C    0.091839   4.925008   0.435882  -0.057858  -0.057858   0.435882
     3  C    0.091800   0.435882   4.925016   0.435834  -0.057909  -0.057816
     4  C    0.091820  -0.057858   0.435834   4.925273   0.435810  -0.057909
     5  C    0.091820  -0.057858  -0.057909   0.435810   4.925273   0.435834
     6  C    0.091800   0.435882  -0.057816  -0.057909   0.435834   4.925016
     7  H    0.002174  -0.044178   0.388774  -0.044157   0.005224   0.005226
     8  H    0.002190   0.005222  -0.044163   0.388749  -0.044158   0.005221
     9  H    0.002190   0.005222   0.005221  -0.044158   0.388749  -0.044163
    10  H    0.002174  -0.044178   0.005226   0.005224  -0.044157   0.388774
    11  H    0.002182   0.388761  -0.044159   0.005224   0.005224  -0.044159
    12  C    0.091839   0.018668  -0.003922  -0.002727  -0.002727  -0.003922
    13  C    0.091800  -0.003922  -0.002717  -0.002736  -0.003924   0.018669
    14  C    0.091820  -0.002727  -0.002736  -0.003922   0.018675  -0.003924
    15  C    0.091820  -0.002727  -0.003924   0.018675  -0.003922  -0.002736
    16  C    0.091800  -0.003922   0.018669  -0.003924  -0.002736  -0.002717
    17  H    0.002174  -0.000268   0.000038   0.000038  -0.000269  -0.000214
    18  H    0.002190   0.000038   0.000038  -0.000267  -0.000214  -0.000267
    19  H    0.002190   0.000038  -0.000267  -0.000214  -0.000267   0.000038
    20  H    0.002174  -0.000268  -0.000214  -0.000269   0.000038   0.000038
    21  H    0.002182  -0.000213  -0.000270   0.000038   0.000038  -0.000270
               7          8          9         10         11         12
     1  Fe   0.002174   0.002190   0.002190   0.002174   0.002182   0.091839
     2  C   -0.044178   0.005222   0.005222  -0.044178   0.388761   0.018668
     3  C    0.388774  -0.044163   0.005221   0.005226  -0.044159  -0.003922
     4  C   -0.044157   0.388749  -0.044158   0.005224   0.005224  -0.002727
     5  C    0.005224  -0.044158   0.388749  -0.044157   0.005224  -0.002727
     6  C    0.005226   0.005221  -0.044163   0.388774  -0.044159  -0.003922
     7  H    0.592836  -0.003468  -0.000081  -0.000081  -0.003475  -0.000268
     8  H   -0.003468   0.592852  -0.003468  -0.000081  -0.000081   0.000038
     9  H   -0.000081  -0.003468   0.592852  -0.003468  -0.000081   0.000038
    10  H   -0.000081  -0.000081  -0.003468   0.592836  -0.003475  -0.000268
    11  H   -0.003475  -0.000081  -0.000081  -0.003475   0.592834  -0.000213
    12  C   -0.000268   0.000038   0.000038  -0.000268  -0.000213   4.925008
    13  C    0.000038   0.000038  -0.000267  -0.000214  -0.000270   0.435882
    14  C    0.000038  -0.000267  -0.000214  -0.000269   0.000038  -0.057858
    15  C   -0.000269  -0.000214  -0.000267   0.000038   0.000038  -0.057858
    16  C   -0.000214  -0.000267   0.000038   0.000038  -0.000270   0.435882
    17  H    0.000002   0.000002  -0.000009   0.000079  -0.000009  -0.044178
    18  H    0.000002  -0.000009   0.000078  -0.000009   0.000002   0.005222
    19  H   -0.000009   0.000078  -0.000009   0.000002   0.000002   0.005222
    20  H    0.000079  -0.000009   0.000002   0.000002  -0.000009  -0.044178
    21  H   -0.000009   0.000002   0.000002  -0.000009   0.000080   0.388761
              13         14         15         16         17         18
     1  Fe   0.091800   0.091820   0.091820   0.091800   0.002174   0.002190
     2  C   -0.003922  -0.002727  -0.002727  -0.003922  -0.000268   0.000038
     3  C   -0.002717  -0.002736  -0.003924   0.018669   0.000038   0.000038
     4  C   -0.002736  -0.003922   0.018675  -0.003924   0.000038  -0.000267
     5  C   -0.003924   0.018675  -0.003922  -0.002736  -0.000269  -0.000214
     6  C    0.018669  -0.003924  -0.002736  -0.002717  -0.000214  -0.000267
     7  H    0.000038   0.000038  -0.000269  -0.000214   0.000002   0.000002
     8  H    0.000038  -0.000267  -0.000214  -0.000267   0.000002  -0.000009
     9  H   -0.000267  -0.000214  -0.000267   0.000038  -0.000009   0.000078
    10  H   -0.000214  -0.000269   0.000038   0.000038   0.000079  -0.000009
    11  H   -0.000270   0.000038   0.000038  -0.000270  -0.000009   0.000002
    12  C    0.435882  -0.057858  -0.057858   0.435882  -0.044178   0.005222
    13  C    4.925016   0.435834  -0.057909  -0.057816   0.388774  -0.044163
    14  C    0.435834   4.925273   0.435810  -0.057909  -0.044157   0.388749
    15  C   -0.057909   0.435810   4.925273   0.435834   0.005224  -0.044158
    16  C   -0.057816  -0.057909   0.435834   4.925016   0.005226   0.005221
    17  H    0.388774  -0.044157   0.005224   0.005226   0.592836  -0.003468
    18  H   -0.044163   0.388749  -0.044158   0.005221  -0.003468   0.592852
    19  H    0.005221  -0.044158   0.388749  -0.044163  -0.000081  -0.003468
    20  H    0.005226   0.005224  -0.044157   0.388774  -0.000081  -0.000081
    21  H   -0.044159   0.005224   0.005224  -0.044159  -0.003475  -0.000081
              19         20         21
     1  Fe   0.002190   0.002174   0.002182
     2  C    0.000038  -0.000268  -0.000213
     3  C   -0.000267  -0.000214  -0.000270
     4  C   -0.000214  -0.000269   0.000038
     5  C   -0.000267   0.000038   0.000038
     6  C    0.000038   0.000038  -0.000270
     7  H   -0.000009   0.000079  -0.000009
     8  H    0.000078  -0.000009   0.000002
     9  H   -0.000009   0.000002   0.000002
    10  H    0.000002   0.000002  -0.000009
    11  H    0.000002  -0.000009   0.000080
    12  C    0.005222  -0.044178   0.388761
    13  C    0.005221   0.005226  -0.044159
    14  C   -0.044158   0.005224   0.005224
    15  C    0.388749  -0.044157   0.005224
    16  C   -0.044163   0.388774  -0.044159
    17  H   -0.000081  -0.000081  -0.003475
    18  H   -0.003468  -0.000081  -0.000081
    19  H    0.592852  -0.003468  -0.000081
    20  H   -0.003468   0.592836  -0.003475
    21  H   -0.000081  -0.003475   0.592834
 Mulliken charges:
               1
     1  Fe  -0.133392
     2  C   -0.088440
     3  C   -0.088401
     4  C   -0.088544
     5  C   -0.088544
     6  C   -0.088401
     7  H    0.101815
     8  H    0.101792
     9  H    0.101792
    10  H    0.101815
    11  H    0.101814
    12  C   -0.088440
    13  C   -0.088401
    14  C   -0.088544
    15  C   -0.088544
    16  C   -0.088401
    17  H    0.101815
    18  H    0.101792
    19  H    0.101792
    20  H    0.101815
    21  H    0.101814
 Sum of Mulliken charges =   0.00000
 Mulliken charges with hydrogens summed into heavy atoms:
               1
     1  Fe  -0.133392
     2  C    0.013373
     3  C    0.013413
     4  C    0.013248
     5  C    0.013248
     6  C    0.013413
    12  C    0.013373
    13  C    0.013413
    14  C    0.013248
    15  C    0.013248
    16  C    0.013413
 APT charges:
               1
     1  Fe  -0.726062
     2  C    0.037665
     3  C    0.037449
     4  C    0.037972
     5  C    0.037972
     6  C    0.037449
     7  H    0.034982
     8  H    0.034819
     9  H    0.034819
    10  H    0.034982
    11  H    0.034922
    12  C    0.037665
    13  C    0.037449
    14  C    0.037972
    15  C    0.037972
    16  C    0.037449
    17  H    0.034982
    18  H    0.034819
    19  H    0.034819
    20  H    0.034982
    21  H    0.034922
 Sum of APT charges =   0.00000
 APT charges with hydrogens summed into heavy atoms:
               1
     1  Fe  -0.726062
     2  C    0.072587
     3  C    0.072431
     4  C    0.072791
     5  C    0.072791
     6  C    0.072431
    12  C    0.072587
    13  C    0.072431
    14  C    0.072791
    15  C    0.072791
    16  C    0.072431
 Electronic spatial extent (au):  <R**2>=           1370.2839
 Charge=              0.0000 electrons
 Dipole moment (field-independent basis, Debye):
    X=             -0.0031    Y=              0.0000    Z=              0.0000  Tot=              0.0031
 Quadrupole moment (field-independent basis, Debye-Ang):
   XX=            -67.1477   YY=            -67.1526   ZZ=            -78.4531
   XY=              0.0000   XZ=              0.0000   YZ=              0.0000
 Traceless Quadrupole moment (field-independent basis, Debye-Ang):
   XX=              3.7701   YY=              3.7652   ZZ=             -7.5353
   XY=              0.0000   XZ=              0.0000   YZ=              0.0000
 Octapole moment (field-independent basis, Debye-Ang**2):
  XXX=              0.0035  YYY=              0.0000  ZZZ=              0.0000  XYY=             -0.0035
  XXY=              0.0000  XXZ=              0.0000  XZZ=              0.0444  YZZ=              0.0000
  YYZ=              0.0000  XYZ=              0.0000
 Hexadecapole moment (field-independent basis, Debye-Ang**3):
 XXXX=           -381.9045 YYYY=           -381.9124 ZZZZ=          -1180.7054 XXXY=              0.0000
 XXXZ=              0.0000 YYYX=              0.0000 YYYZ=              0.0000 ZZZX=              0.0000
 ZZZY=              0.0000 XXYY=           -127.2819 XXZZ=           -240.0832 YYZZ=           -240.1040
 XXYZ=              0.0000 YYXZ=              0.0000 ZZXY=              0.0000
 N-N= 7.380122177231D+02 E-N=-2.660097955802D+03  KE= 4.548901786780D+02
 Symmetry A'   KE= 2.476860870175D+02
 Symmetry A"   KE= 2.072040916605D+02
  Exact polarizability: 101.326   0.000 101.323   0.000   0.000 121.807
 Approx polarizability: 173.706   0.000 173.696   0.000   0.000 206.732
 Breneman (CHELPG) radii used.
 Read replacement radii for each type of atom:
 Rad(26) =   1.750000000000D+00
 Atom Element Radius
    1    26    1.75
    2     6    1.50
    3     6    1.50
    4     6    1.50
    5     6    1.50
    6     6    1.50
    7     1    1.45
    8     1    1.45
    9     1    1.45
   10     1    1.45
   11     1    1.45
   12     6    1.50
   13     6    1.50
   14     6    1.50
   15     6    1.50
   16     6    1.50
   17     1    1.45
   18     1    1.45
   19     1    1.45
   20     1    1.45
   21     1    1.45
 Generate Potential Derived Charges using the Breneman model, NDens= 1.
 Grid spacing= 0.300 Box extension= 2.800
 NStep X,Y,Z=   34     35     31   Total possible points=       36890
 Number of Points to Fit=   13851

 **********************************************************************

            Electrostatic Properties Using The SCF Density

 **********************************************************************

       Atomic Center    1 is at   0.000726  0.000000  0.000000
       Atomic Center    2 is at  -1.214938  0.000000  1.685749
       Atomic Center    3 is at  -0.375642  1.155259  1.686209
       Atomic Center    4 is at   0.982499  0.714027  1.686907
       Atomic Center    5 is at   0.982499 -0.714027  1.686907
       Atomic Center    6 is at  -0.375642 -1.155259  1.686209
       Atomic Center    7 is at  -0.710179  2.183173  1.659073
       Atomic Center    8 is at   1.857112  1.349529  1.661404
       Atomic Center    9 is at   1.857112 -1.349529  1.661404
       Atomic Center   10 is at  -0.710179 -2.183173  1.659073
       Atomic Center   11 is at  -2.295956  0.000000  1.658025
       Atomic Center   12 is at  -1.214938  0.000000 -1.685749
       Atomic Center   13 is at  -0.375642 -1.155259 -1.686209
       Atomic Center   14 is at   0.982499 -0.714027 -1.686907
       Atomic Center   15 is at   0.982499  0.714027 -1.686907
       Atomic Center   16 is at  -0.375642  1.155259 -1.686209
       Atomic Center   17 is at  -0.710179 -2.183173 -1.659073
       Atomic Center   18 is at   1.857112 -1.349529 -1.661404
       Atomic Center   19 is at   1.857112  1.349529 -1.661404
       Atomic Center   20 is at  -0.710179  2.183173 -1.659073
       Atomic Center   21 is at  -2.295956  0.000000 -1.658025
   13851 points will be used for fitting atomic charges
 Fitting point charges to electrostatic potential
 Charges from ESP fit, RMS=   0.00319 RRMS=   0.40016:
 ESP charges:
               1
     1  Fe  -0.043779
     2  C   -0.091179
     3  C   -0.094190
     4  C   -0.079418
     5  C   -0.079418
     6  C   -0.094190
     7  H    0.094682
     8  H    0.087950
     9  H    0.087950
    10  H    0.094682
    11  H    0.095020
    12  C   -0.091179
    13  C   -0.094190
    14  C   -0.079418
    15  C   -0.079418
    16  C   -0.094190
    17  H    0.094682
    18  H    0.087950
    19  H    0.087950
    20  H    0.094682
    21  H    0.095020
 Sum of ESP charges =   0.00000
 ESP charges with hydrogens summed into heavy atoms:
               1
     1  Fe  -0.043779
     2  C    0.003841
     3  C    0.000492
     4  C    0.008532
     5  C    0.008532
     6  C    0.000492
    12  C    0.003841
    13  C    0.000492
    14  C    0.008532
    15  C    0.008532
    16  C    0.000492
 Charge=   0.00000 Dipole=    -0.0049     0.0000     0.0000 Tot=     0.0049
 -----------------------------------------------------------------

              Electrostatic Properties (Atomic Units)

 -----------------------------------------------------------------
    Center     Electric         -------- Electric Field --------
               Potential          X             Y             Z
 -----------------------------------------------------------------
    1 Atom    -18.898495
    2 Atom    -14.755899
    3 Atom    -14.755895
    4 Atom    -14.755887
    5 Atom    -14.755887
    6 Atom    -14.755895
    7 Atom     -1.108268
    8 Atom     -1.108273
    9 Atom     -1.108273
   10 Atom     -1.108268
   11 Atom     -1.108247
   12 Atom    -14.755899
   13 Atom    -14.755895
   14 Atom    -14.755887
   15 Atom    -14.755887
   16 Atom    -14.755895
   17 Atom     -1.108268
   18 Atom     -1.108273
   19 Atom     -1.108273
   20 Atom     -1.108268
   21 Atom     -1.108247
 -----------------------------------------------------------------
   2 Symmetry operations used in ECPInt.
 ECPInt:  NShTT=    3081 NPrTT=   15978 LenC2=    3037 LenP2D=   11668.
 LDataN:  DoStor=T MaxTD1= 6 Len=  172
 Calling FoFJK, ICntrl=    100127 FMM=F ISym2X=1 I1Cent= 0 IOpClX= 0 NMat=1 NMatS=1 NMatT=0.
 Full mass-weighted force constant matrix:
 Low frequencies ---  -12.0407    0.0003    0.0003    0.0005    1.3060   10.4955
 Low frequencies ---   38.1735  165.0309  165.5318
 Diagonal vibrational polarizability:
        4.5961000       4.5972664       5.1268793
 Harmonic frequencies (cm**-1), IR intensities (KM/Mole), Raman scattering
 activities (A**4/AMU), depolarization ratios for plane and unpolarized
 incident light, reduced masses (AMU), force constants (mDyne/A),
 and normal coordinates:
                      1                      2                      3
                     A"                     A'                     A'
 Frequencies --     38.1735               165.0309               165.5318
 Red. masses --      3.4141                 4.2386                 4.2300
 Frc consts  --      0.0029                 0.0680                 0.0683
 IR Inten    --      0.0000                 0.7779                 0.8048
  Atom  AN      X      Y      Z        X      Y      Z        X      Y      Z
     1  26     0.00   0.00   0.00     0.00   0.12   0.00     0.12   0.00   0.00
     2   6     0.00   0.15   0.00     0.00  -0.05   0.00    -0.05   0.00  -0.19
     3   6     0.14   0.05   0.00     0.00  -0.05   0.18    -0.05   0.00  -0.06
     4   6     0.09  -0.12   0.00     0.00  -0.05   0.12    -0.05   0.00   0.16
     5   6    -0.09  -0.12   0.00     0.00  -0.05  -0.12    -0.05   0.00   0.16
     6   6    -0.14   0.05   0.00     0.00  -0.05  -0.18    -0.05   0.00  -0.06
     7   1     0.27   0.09   0.00     0.00  -0.05   0.36    -0.05   0.00  -0.11
     8   1     0.16  -0.23   0.00     0.00  -0.05   0.23    -0.05   0.00   0.32
     9   1    -0.16  -0.23   0.00     0.00  -0.05  -0.23    -0.05   0.00   0.32
    10   1    -0.27   0.09   0.00     0.00  -0.05  -0.36    -0.05   0.00  -0.11
    11   1     0.00   0.28   0.00     0.00  -0.05   0.00    -0.05   0.00  -0.38
    12   6     0.00  -0.15   0.00     0.00  -0.05   0.00    -0.05   0.00   0.19
    13   6     0.14  -0.05   0.00     0.00  -0.05   0.18    -0.05   0.00   0.06
    14   6     0.09   0.12   0.00     0.00  -0.05   0.12    -0.05   0.00  -0.16
    15   6    -0.09   0.12   0.00     0.00  -0.05  -0.12    -0.05   0.00  -0.16
    16   6    -0.14  -0.05   0.00     0.00  -0.05  -0.18    -0.05   0.00   0.06
    17   1     0.27  -0.09   0.00     0.00  -0.05   0.36    -0.05   0.00   0.11
    18   1     0.16   0.23   0.00     0.00  -0.05   0.23    -0.05   0.00  -0.32
    19   1    -0.16   0.23   0.00     0.00  -0.05  -0.23    -0.05   0.00  -0.32
    20   1    -0.27  -0.09   0.00     0.00  -0.05  -0.36    -0.05   0.00   0.11
    21   1     0.00  -0.28   0.00     0.00  -0.05   0.00    -0.05   0.00   0.38
                      4                      5                      6
                     A'                     A"                     A"
 Frequencies --    275.3539               341.9469               342.9267
 Red. masses --      5.3301                 4.3226                 4.3520
 Frc consts  --      0.2381                 0.2978                 0.3015
 IR Inten    --      0.0010                 0.0000                 0.0002
  Atom  AN      X      Y      Z        X      Y      Z        X      Y      Z
     1  26     0.00   0.00   0.00     0.00   0.00   0.00     0.00   0.00   0.00
     2   6     0.01   0.00   0.20     0.00   0.10   0.00     0.08   0.00  -0.21
     3   6     0.00  -0.01   0.20     0.01   0.08   0.20     0.09   0.00  -0.07
     4   6     0.00   0.00   0.20    -0.01   0.09   0.13     0.08  -0.01   0.17
     5   6     0.00   0.00   0.20     0.01   0.09  -0.13     0.08   0.01   0.17
     6   6     0.00   0.01   0.20    -0.01   0.08  -0.20     0.09   0.00  -0.07
     7   1     0.00  -0.01   0.25     0.01   0.09   0.33     0.12   0.01  -0.10
     8   1     0.00   0.00   0.24    -0.02   0.11   0.20     0.10  -0.02   0.28
     9   1     0.00   0.00   0.24     0.02   0.11  -0.20     0.10   0.02   0.28
    10   1     0.00   0.01   0.25    -0.01   0.09  -0.33     0.12  -0.01  -0.10
    11   1     0.01   0.00   0.25     0.00   0.12   0.00     0.08   0.00  -0.34
    12   6     0.01   0.00  -0.20     0.00  -0.10   0.00    -0.08   0.00  -0.21
    13   6     0.00   0.01  -0.20     0.01  -0.08  -0.20    -0.09   0.00  -0.07
    14   6     0.00   0.00  -0.20    -0.01  -0.09  -0.13    -0.08  -0.01   0.17
    15   6     0.00   0.00  -0.20     0.01  -0.09   0.13    -0.08   0.01   0.17
    16   6     0.00  -0.01  -0.20    -0.01  -0.08   0.20    -0.09   0.00  -0.07
    17   1     0.00   0.01  -0.25     0.01  -0.09  -0.33    -0.12   0.01  -0.10
    18   1     0.00   0.00  -0.24    -0.02  -0.11  -0.20    -0.10  -0.02   0.28
    19   1     0.00   0.00  -0.24     0.02  -0.11   0.20    -0.10   0.02   0.28
    20   1     0.00  -0.01  -0.25    -0.01  -0.09   0.33    -0.12  -0.01  -0.10
    21   1     0.01   0.00  -0.25     0.00  -0.12   0.00    -0.08   0.00  -0.34
                      7                      8                      9
                     A"                     A'                     A'
 Frequencies --    448.3310               453.9337               454.2107
 Red. masses --      7.8502                11.1557                11.1789
 Frc consts  --      0.9297                 1.3544                 1.3588
 IR Inten    --     12.6862                23.9247                23.7650
  Atom  AN      X      Y      Z        X      Y      Z        X      Y      Z
     1  26     0.00   0.00   0.31     0.00   0.31   0.00     0.31   0.00   0.00
     2   6    -0.02   0.00  -0.12     0.00  -0.15   0.00    -0.11   0.00   0.23
     3   6     0.00   0.02  -0.12    -0.01  -0.11  -0.22    -0.15  -0.01   0.07
     4   6     0.02   0.01  -0.12     0.02  -0.14  -0.14    -0.12   0.02  -0.19
     5   6     0.02  -0.01  -0.12    -0.02  -0.14   0.14    -0.12  -0.02  -0.19
     6   6     0.00  -0.02  -0.12     0.01  -0.11   0.22    -0.15   0.01   0.07
     7   1     0.00   0.01  -0.28    -0.03  -0.12  -0.17    -0.21  -0.03   0.06
     8   1     0.01   0.01  -0.27     0.05  -0.18  -0.11    -0.15   0.05  -0.15
     9   1     0.01  -0.01  -0.27    -0.05  -0.18   0.11    -0.15  -0.05  -0.15
    10   1     0.00  -0.01  -0.28     0.03  -0.12   0.17    -0.21   0.03   0.06
    11   1    -0.01   0.00  -0.28     0.00  -0.22   0.00    -0.11   0.00   0.18
    12   6     0.02   0.00  -0.12     0.00  -0.15   0.00    -0.11   0.00  -0.23
    13   6     0.00   0.02  -0.12     0.01  -0.11  -0.22    -0.15   0.01  -0.07
    14   6    -0.02   0.01  -0.12    -0.02  -0.14  -0.14    -0.12  -0.02   0.19
    15   6    -0.02  -0.01  -0.12     0.02  -0.14   0.14    -0.12   0.02   0.19
    16   6     0.00  -0.02  -0.12    -0.01  -0.11   0.22    -0.15  -0.01  -0.07
    17   1     0.00   0.01  -0.28     0.03  -0.12  -0.17    -0.21   0.03  -0.06
    18   1    -0.01   0.01  -0.27    -0.05  -0.18  -0.11    -0.15  -0.05   0.15
    19   1    -0.01  -0.01  -0.27     0.05  -0.18   0.11    -0.15   0.05   0.15
    20   1     0.00  -0.01  -0.28    -0.03  -0.12   0.17    -0.21  -0.03  -0.06
    21   1     0.01   0.00  -0.28     0.00  -0.22   0.00    -0.11   0.00  -0.18
                     10                     11                     12
                     A"                     A"                     A'
 Frequencies --    569.2129               571.6463               577.3417
 Red. masses --      5.1027                 5.0447                 5.0461
 Frc consts  --      0.9741                 0.9713                 0.9910
 IR Inten    --      0.0000                 0.0003                 0.0002
  Atom  AN      X      Y      Z        X      Y      Z        X      Y      Z
     1  26     0.00   0.00   0.00     0.00   0.00   0.00     0.00   0.00   0.00
     2   6     0.00  -0.02   0.00     0.00   0.00   0.27     0.00   0.01   0.00
     3   6     0.01   0.00  -0.16    -0.01   0.00  -0.22    -0.01  -0.01   0.16
     4   6     0.00   0.00   0.26     0.01  -0.01   0.08     0.01   0.00  -0.26
     5   6     0.00   0.00  -0.26     0.01   0.01   0.08    -0.01   0.00   0.26
     6   6    -0.01   0.00   0.16    -0.01   0.00  -0.22     0.01  -0.01  -0.16
     7   1     0.03   0.00  -0.21    -0.02  -0.01  -0.29    -0.03  -0.01   0.21
     8   1     0.00   0.01   0.33     0.02  -0.02   0.11     0.01  -0.01  -0.34
     9   1     0.00   0.01  -0.33     0.02   0.02   0.11    -0.01  -0.01   0.34
    10   1    -0.03   0.00   0.21    -0.02   0.01  -0.29     0.03  -0.01  -0.21
    11   1     0.00  -0.03   0.00    -0.01   0.00   0.35     0.00   0.03   0.00
    12   6     0.00   0.02   0.00     0.00   0.00   0.27     0.00   0.01   0.00
    13   6     0.01   0.00   0.16     0.01   0.00  -0.22     0.01  -0.01   0.16
    14   6     0.00   0.00  -0.26    -0.01  -0.01   0.08    -0.01   0.00  -0.26
    15   6     0.00   0.00   0.26    -0.01   0.01   0.08     0.01   0.00   0.26
    16   6    -0.01   0.00  -0.16     0.01   0.00  -0.22    -0.01  -0.01  -0.16
    17   1     0.03   0.00   0.21     0.02  -0.01  -0.29     0.03  -0.01   0.21
    18   1     0.00  -0.01  -0.33    -0.02  -0.02   0.11    -0.01  -0.01  -0.34
    19   1     0.00  -0.01   0.33    -0.02   0.02   0.11     0.01  -0.01   0.34
    20   1    -0.03   0.00  -0.21     0.02   0.01  -0.29    -0.03  -0.01  -0.21
    21   1     0.00   0.03   0.00     0.01   0.00   0.35     0.00   0.03   0.00
                     13                     14                     15
                     A'                     A"                     A"
 Frequencies --    580.4229               808.5751               812.0874
 Red. masses --      5.0435                 1.2222                 1.2194
 Frc consts  --      1.0011                 0.4708                 0.4738
 IR Inten    --      0.0006                 0.0000                 0.6249
  Atom  AN      X      Y      Z        X      Y      Z        X      Y      Z
     1  26     0.00   0.00   0.00     0.00   0.00   0.00     0.00   0.00   0.00
     2   6     0.00   0.00  -0.27     0.00   0.00   0.00    -0.01   0.00  -0.06
     3   6     0.01   0.00   0.22     0.00   0.01  -0.06     0.00   0.00  -0.02
     4   6     0.00   0.01  -0.08     0.00   0.00  -0.03     0.00   0.00   0.05
     5   6     0.00  -0.01  -0.08     0.00   0.00   0.03     0.00   0.00   0.05
     6   6     0.01   0.00   0.22     0.00   0.01   0.06     0.00   0.00  -0.02
     7   1     0.02   0.01   0.29    -0.01   0.02   0.43     0.01   0.01   0.17
     8   1    -0.02   0.03  -0.11     0.01   0.00   0.25    -0.01  -0.01  -0.33
     9   1    -0.02  -0.03  -0.11    -0.01   0.00  -0.25    -0.01   0.01  -0.33
    10   1     0.02  -0.01   0.29     0.01   0.02  -0.43     0.01  -0.01   0.17
    11   1     0.00   0.00  -0.36     0.00  -0.01   0.00    -0.02   0.00   0.47
    12   6     0.00   0.00   0.27     0.00   0.00   0.00     0.01   0.00  -0.06
    13   6     0.01   0.00  -0.22     0.00  -0.01   0.06     0.00   0.00  -0.02
    14   6     0.00  -0.01   0.08     0.00   0.00   0.03     0.00   0.00   0.05
    15   6     0.00   0.01   0.08     0.00   0.00  -0.03     0.00   0.00   0.05
    16   6     0.01   0.00  -0.22     0.00  -0.01  -0.06     0.00   0.00  -0.02
    17   1     0.02  -0.01  -0.29    -0.01  -0.02  -0.43    -0.01   0.01   0.17
    18   1    -0.02  -0.03   0.11     0.01   0.00  -0.25     0.01  -0.01  -0.33
    19   1    -0.02   0.03   0.11    -0.01   0.00   0.25     0.01   0.01  -0.33
    20   1     0.02   0.01  -0.29     0.01  -0.02   0.43    -0.01  -0.01   0.17
    21   1     0.00   0.00   0.36     0.00   0.01   0.00     0.02   0.00   0.47
                     16                     17                     18
                     A"                     A'                     A"
 Frequencies --    823.3787               827.3908               838.9382
 Red. masses --      1.1743                 1.1316                 4.9852
 Frc consts  --      0.4691                 0.4564                 2.0673
 IR Inten    --     77.7298                 0.1016                 0.0000
  Atom  AN      X      Y      Z        X      Y      Z        X      Y      Z
     1  26     0.00   0.00  -0.02     0.00   0.00   0.00     0.00   0.00   0.00
     2   6    -0.01   0.00   0.03     0.01   0.00  -0.03     0.00  -0.10   0.00
     3   6     0.00   0.00   0.04     0.00   0.00  -0.03     0.12  -0.11   0.01
     4   6     0.00   0.00   0.04     0.00   0.00  -0.04     0.17   0.16  -0.02
     5   6     0.00   0.00   0.04     0.00   0.00  -0.04    -0.17   0.16   0.02
     6   6     0.00   0.00   0.04     0.00   0.00  -0.03    -0.12  -0.11  -0.01
     7   1     0.01  -0.01  -0.31     0.00   0.01   0.29    -0.13  -0.20  -0.04
     8   1    -0.01   0.00  -0.34     0.01   0.00   0.36     0.24   0.09   0.12
     9   1    -0.01   0.00  -0.34     0.01   0.00   0.36    -0.24   0.09  -0.12
    10   1     0.01   0.01  -0.31     0.00  -0.01   0.29     0.13  -0.20   0.04
    11   1     0.00   0.00  -0.26     0.00   0.00   0.26     0.00   0.22   0.00
    12   6     0.01   0.00   0.03     0.01   0.00   0.03     0.00   0.10   0.00
    13   6     0.00   0.00   0.04     0.00   0.00   0.03     0.12   0.11  -0.01
    14   6     0.00   0.00   0.04     0.00   0.00   0.04     0.17  -0.16   0.02
    15   6     0.00   0.00   0.04     0.00   0.00   0.04    -0.17  -0.16  -0.02
    16   6     0.00   0.00   0.04     0.00   0.00   0.03    -0.12   0.11   0.01
    17   1    -0.01  -0.01  -0.31     0.00  -0.01  -0.29    -0.13   0.20   0.04
    18   1     0.01   0.00  -0.34     0.01   0.00  -0.36     0.24  -0.09  -0.12
    19   1     0.01   0.00  -0.34     0.01   0.00  -0.36    -0.24  -0.09   0.12
    20   1    -0.01   0.01  -0.31     0.00   0.01  -0.29     0.13   0.20  -0.04
    21   1     0.00   0.00  -0.26     0.00   0.00  -0.26     0.00  -0.22   0.00
                     19                     20                     21
                     A"                     A'                     A'
 Frequencies --    839.8521               843.0785               843.6758
 Red. masses --      4.9871                 1.2214                 1.2244
 Frc consts  --      2.0725                 0.5115                 0.5135
 IR Inten    --      0.1285                 5.3790                 5.3583
  Atom  AN      X      Y      Z        X      Y      Z        X      Y      Z
     1  26     0.00   0.00   0.00    -0.02   0.00   0.00     0.00   0.02   0.00
     2   6    -0.25   0.00  -0.02     0.01   0.00   0.06     0.00  -0.01   0.00
     3   6     0.01  -0.21   0.01     0.01   0.00   0.02     0.00  -0.01   0.05
     4   6     0.12  -0.03  -0.01     0.00   0.00  -0.04     0.01   0.00   0.04
     5   6     0.12   0.03  -0.01     0.00   0.00  -0.04    -0.01   0.00  -0.04
     6   6     0.01   0.21   0.01     0.01   0.00   0.02     0.00  -0.01  -0.05
     7   1     0.19  -0.15  -0.07     0.02   0.00  -0.17    -0.01  -0.02  -0.40
     8   1    -0.06   0.22   0.07     0.02  -0.01   0.31     0.01  -0.02  -0.29
     9   1    -0.06  -0.22   0.07     0.02   0.01   0.31    -0.01  -0.02   0.29
    10   1     0.19   0.15  -0.07     0.02   0.00  -0.17     0.01  -0.02   0.40
    11   1    -0.25   0.00   0.12     0.02   0.00  -0.49     0.00  -0.02   0.00
    12   6     0.25   0.00  -0.02     0.01   0.00  -0.06     0.00  -0.01   0.00
    13   6    -0.01  -0.21   0.01     0.01   0.00  -0.02     0.00  -0.01   0.05
    14   6    -0.12  -0.03  -0.01     0.00   0.00   0.04    -0.01   0.00   0.04
    15   6    -0.12   0.03  -0.01     0.00   0.00   0.04     0.01   0.00  -0.04
    16   6    -0.01   0.21   0.01     0.01   0.00  -0.02     0.00  -0.01  -0.05
    17   1    -0.19  -0.15  -0.07     0.02   0.00   0.17     0.01  -0.02  -0.40
    18   1     0.06   0.22   0.07     0.02   0.01  -0.31    -0.01  -0.02  -0.29
    19   1     0.06  -0.22   0.07     0.02  -0.01  -0.31     0.01  -0.02   0.29
    20   1    -0.19   0.15  -0.07     0.02   0.00   0.17    -0.01  -0.02   0.40
    21   1     0.25   0.00   0.12     0.02   0.00   0.49     0.00  -0.02   0.00
                     22                     23                     24
                     A'                     A'                     A"
 Frequencies --    854.7624               855.3933               880.4986
 Red. masses --      4.7802                 4.8724                 1.1545
 Frc consts  --      2.0577                 2.1005                 0.5274
 IR Inten    --      0.0077                 0.0061                 0.0934
  Atom  AN      X      Y      Z        X      Y      Z        X      Y      Z
     1  26     0.00   0.00   0.00     0.00   0.00   0.00     0.00   0.00   0.00
     2   6     0.00   0.10   0.00     0.25   0.00   0.00    -0.01   0.00   0.05
     3   6    -0.12   0.11   0.00    -0.01   0.21  -0.01     0.00  -0.01  -0.04
     4   6    -0.17  -0.16   0.01    -0.12   0.03   0.01     0.01  -0.01   0.02
     5   6     0.17  -0.16  -0.01    -0.12  -0.03   0.01     0.01   0.01   0.02
     6   6     0.12   0.11   0.00    -0.01  -0.21  -0.01     0.00   0.01  -0.04
     7   1     0.14   0.20   0.03    -0.20   0.15   0.08     0.01   0.00   0.35
     8   1    -0.24  -0.08  -0.13     0.07  -0.23  -0.06    -0.01   0.01  -0.15
     9   1     0.24  -0.08   0.13     0.07   0.23  -0.06    -0.01  -0.01  -0.15
    10   1    -0.14   0.20  -0.03    -0.20  -0.15   0.08     0.01   0.00   0.35
    11   1     0.00  -0.24   0.00     0.25   0.00  -0.07     0.00   0.00  -0.46
    12   6     0.00   0.10   0.00     0.25   0.00   0.00     0.01   0.00   0.05
    13   6     0.12   0.11   0.00    -0.01  -0.21   0.01     0.00  -0.01  -0.04
    14   6     0.17  -0.16   0.01    -0.12  -0.03  -0.01    -0.01  -0.01   0.02
    15   6    -0.17  -0.16  -0.01    -0.12   0.03  -0.01    -0.01   0.01   0.02
    16   6    -0.12   0.11   0.00    -0.01   0.21   0.01     0.00   0.01  -0.04
    17   1    -0.14   0.20   0.03    -0.20  -0.15  -0.08    -0.01   0.00   0.35
    18   1     0.24  -0.08  -0.13     0.07   0.23   0.06     0.01   0.01  -0.15
    19   1    -0.24  -0.08   0.13     0.07  -0.23   0.06     0.01  -0.01  -0.15
    20   1     0.14   0.20  -0.03    -0.20   0.15  -0.08    -0.01   0.00   0.35
    21   1     0.00  -0.24   0.00     0.25   0.00   0.07     0.00   0.00  -0.46
                     25                     26                     27
                     A"                     A'                     A'
 Frequencies --    881.3936               888.9576               891.1441
 Red. masses --      1.1518                 1.1544                 1.1497
 Frc consts  --      0.5272                 0.5375                 0.5379
 IR Inten    --      0.0000                 0.0354                 0.0005
  Atom  AN      X      Y      Z        X      Y      Z        X      Y      Z
     1  26     0.00   0.00   0.00     0.00   0.00   0.00     0.00   0.00   0.00
     2   6     0.00  -0.01   0.00     0.00   0.01   0.00     0.01   0.00  -0.05
     3   6     0.01   0.00  -0.03    -0.01   0.00   0.03     0.00   0.01   0.04
     4   6     0.01   0.01   0.05    -0.01  -0.01  -0.04    -0.01   0.01  -0.01
     5   6    -0.01   0.01  -0.05     0.01  -0.01   0.04    -0.01  -0.01  -0.01
     6   6    -0.01   0.00   0.03     0.01   0.00  -0.03     0.00  -0.01   0.04
     7   1     0.00   0.00   0.25     0.01   0.00  -0.29    -0.01   0.00  -0.37
[...]
 0.00583653,-0.00083820,0.00039500,0.00071236,-0.02603746,-0.00122608,-
 0.08650207,-0.08787211,-0.00243689,0.00097701,0.00070710,-0.00007081,0
 .00050517,-0.00135621,0.00017983,0.00066159,0.00097059,-0.00014275,0.0
 8030480,-0.00032580,-0.00029714,0.00000972,-0.01076663,-0.01136458,-0.
 00100241,0.00245909,-0.00229417,0.00007975,0.00011845,0.00010295,-0.00
 020491,0.00198118,-0.00020426,-0.00029794,-0.08787762,-0.32784488,-0.0
 0756150,-0.00070710,-0.00038818,0.00020710,0.00005718,0.00008409,0.000
 12519,-0.00045063,-0.00003213,0.00017858,0.09517430,0.34157724,0.00341
 262,0.01059025,0.00304884,-0.00274306,-0.00213651,-0.00247919,0.000199
 24,-0.00068124,0.00232356,-0.00059100,-0.00045568,0.00233343,0.0010290
 9,-0.00333861,-0.00250224,-0.00331778,-0.01046836,-0.02548595,-0.00007
 081,-0.00020710,0.00108005,-0.00006503,-0.00020946,0.00107837,0.000023
 08,0.00022409,-0.00171514,0.00260810,0.00840448,0.02460973,-0.00058085
 ,0.,0.00003061,-0.35627737,0.,-0.00811432,-0.00717578,0.00455824,-0.00
 068907,-0.00068374,-0.00155082,-0.00007573,-0.00068375,0.00155082,-0.0
 0007573,-0.00717578,-0.00455825,-0.00068907,0.00016400,-0.00030496,0.0
 0011037,-0.00025925,0.00030520,0.00017435,-0.00025925,-0.00030520,0.00
 017435,0.00016400,0.00030496,0.00011037,0.37252266,0.,0.00067788,0.,0.
 ,-0.05789415,0.,-0.02344921,0.00771517,-0.00109338,-0.00251247,-0.0050
 6135,0.00044639,0.00251247,-0.00506135,-0.00044639,0.02344921,0.007715
 17,0.00109338,0.00110044,0.00045561,-0.00022062,-0.00110826,0.00084632
 ,0.00013232,0.00110826,0.00084632,-0.00013232,-0.00110044,0.00045561,0
 .00022062,0.,0.04934198,0.01138800,0.,0.00304654,-0.01138036,0.,-0.025
 53954,-0.00292522,0.00198841,-0.00252675,-0.00059398,-0.00041597,0.002
 32536,-0.00059398,0.00041597,0.00232536,-0.00292523,-0.00198841,-0.002
 52675,0.00025842,-0.00005266,-0.00165932,-0.00021850,0.00000267,0.0010
 8045,-0.00021850,-0.00000267,0.00108045,0.00025842,0.00005266,-0.00165
 932,0.00906150,0.,0.02463925,-0.04414072,0.,-0.02196051,0.00504945,0.,
 0.00101537,-0.00010832,0.00183101,0.00076010,0.00145756,-0.00036061,-0
 .00098331,0.00145756,0.00036061,-0.00098331,-0.00010832,-0.00183102,0.
 00076010,0.00002795,-0.00016712,-0.00007619,0.00003573,0.00014978,0.00
 047570,0.00003573,-0.00014978,0.00047570,0.00002795,0.00016712,-0.0000
 7619,0.00021105,0.,-0.00079026,0.81528860,0.,-0.00612608,0.,0.,0.00642
 603,0.,-0.00485269,-0.00108856,0.00025081,0.00178632,-0.00070430,-0.00
 181889,-0.00178632,-0.00070429,0.00181889,0.00485269,-0.00108856,-0.00
 025081,-0.00002839,-0.00023224,0.00004266,-0.00001284,0.00001799,0.000
 10429,0.00001284,0.00001799,-0.00010429,0.00002839,-0.00023224,-0.0000
 4266,0.,0.00012709,0.,0.,0.52870343,-0.01629522,0.,-0.03597695,-0.0010
 1537,0.,-0.00124549,0.00001385,0.00081371,0.00020080,-0.00189640,0.000
 94251,-0.00086303,-0.00189640,-0.00094251,-0.00086303,0.00001385,-0.00
 081371,0.00020080,0.00008807,0.00008273,0.00006436,0.00002251,-0.00006
 790,-0.00042658,0.00002251,0.00006790,-0.00042658,0.00008807,-0.000082
 73,0.00006436,-0.00031445,0.,0.00045571,0.01112556,0.,0.12146895,-0.00
 988472,-0.01131892,-0.00658362,-0.00010832,0.00485269,-0.00001385,-0.0
 0090744,-0.00107707,0.00146331,-0.00009082,0.00223278,-0.00201776,-0.0
 0184244,-0.00428089,0.00045767,0.00635940,-0.00048934,0.00029496,-0.00
 002084,0.00002695,0.00002668,0.00006009,-0.00001991,0.00023914,-0.0002
 7140,0.00006074,0.00003007,0.00015096,0.00001717,-0.00016650,-0.000152
 74,0.00008504,-0.00010105,-0.16877563,0.08598468,-0.00902613,0.5555375
 8,-0.01138822,-0.04083498,-0.02072855,-0.00183102,-0.00108856,0.000813
 71,0.00107707,0.00171590,-0.00151943,0.00011652,0.00075295,-0.00035887
 ,0.00241848,0.00077763,0.00067265,-0.00048934,0.00518740,0.00095483,-0
 .00013069,0.00007532,0.00050289,0.00014140,-0.00000624,0.00040946,-0.0
 0007194,0.00006292,-0.00010619,0.00000975,0.00016568,-0.00071366,0.000
 22488,-0.00005628,-0.00005781,0.09915188,-0.22924379,0.00491316,0.0850
 0647,0.78845525,-0.00505670,-0.01561036,-0.03577394,-0.00076010,0.0002
 5081,0.00020080,-0.00146331,-0.00151943,-0.00087053,0.00031552,-0.0020
 7202,-0.00088660,0.00076751,-0.00028822,0.00018891,-0.00029496,-0.0009
 5483,-0.00124927,0.00007150,0.00000250,-0.00042754,-0.00005556,0.00004
 182,-0.00042093,0.00008213,0.00005007,0.00005752,-0.00008722,-0.000248
 88,0.00062875,-0.00003780,0.00010444,0.00008797,0.00225690,-0.01043736
 ,-0.03365411,0.00312721,0.01121772,0.12110048,-0.03091410,0.01791288,0
 .01755298,0.00145756,-0.00178632,0.00189640,-0.00009082,-0.00011652,-0
 .00031552,0.00113015,-0.00337108,-0.00053609,0.00549631,0.00080680,-0.
 00072234,-0.00184244,0.00241848,-0.00076751,-0.00003650,-0.00011146,-0
 .00030255,0.00002873,-0.00003305,0.00011665,0.00024991,0.00001105,0.00
 063001,-0.00015229,-0.00021968,0.00000990,0.00009790,0.00009156,-0.000
 46435,-0.05043772,0.02875026,0.01062687,-0.27774859,-0.06397253,-0.007
 62357,0.71534642,0.01819713,-0.01918226,-0.01274543,0.00036061,-0.0007
 0429,0.00094251,-0.00223278,0.00075295,-0.00207202,0.00337108,-0.00213
 417,0.00064117,0.00080680,0.00595589,0.00044409,-0.00428089,0.00077763
 ,0.00028822,0.00004974,0.00009206,0.00036917,-0.00016518,-0.00023226,0
 .00001673,-0.00003435,0.00016576,-0.00043003,-0.00008989,-0.00005256,-
 0.00011163,-0.00006702,-0.00004317,0.00016936,0.01409063,0.00861089,0.
 00609204,-0.05072423,-0.12012915,-0.00712443,-0.13654210,0.62717525,0.
 01317468,-0.00960148,-0.03540217,0.00098331,-0.00181889,-0.00086303,0.
 00201776,-0.00035887,-0.00088660,0.00053609,0.00064117,0.00018349,0.00
 072234,-0.00044409,-0.00109843,-0.00045767,-0.00067265,0.00018891,-0.0
 0005537,-0.00003917,-0.00041572,-0.00003571,0.00010139,0.00006867,0.00
 028661,-0.00020501,0.00043778,-0.00011323,-0.00001258,0.00007832,0.000
 02072,0.00006792,-0.00042190,-0.00484059,0.01111654,0.00524619,0.01070
 547,-0.00099220,-0.03353033,-0.01001258,0.00717930,0.12003741,-0.03091
 410,-0.01791288,0.01755298,0.00145756,0.00178632,0.00189640,-0.0018424
 4,-0.00241848,-0.00076751,0.00549632,-0.00080680,-0.00072233,0.0011301
 5,0.00337108,-0.00053609,-0.00009082,0.00011652,-0.00031552,-0.0001522
 9,0.00021968,0.00000990,0.00024991,-0.00001105,0.00063001,0.00002873,0
 .00003305,0.00011665,-0.00003650,0.00011146,-0.00030255,0.00009790,-0.
 00009156,-0.00046435,-0.05043772,-0.02875026,0.01062687,-0.00953141,-0
 .02724819,-0.00245968,-0.10128893,-0.00670936,0.00431871,0.71534643,-0
 .01819713,-0.01918226,0.01274543,-0.00036061,-0.00070430,-0.00094251,0
 .00428090,0.00077763,-0.00028822,-0.00080680,0.00595589,-0.00044409,-0
 .00337108,-0.00213417,-0.00064117,0.00223278,0.00075295,0.00207202,0.0
 0008989,-0.00005256,0.00011163,0.00003435,0.00016576,0.00043003,0.0001
 6518,-0.00023226,-0.00001673,-0.00004974,0.00009206,-0.00036917,0.0000
 6702,-0.00004317,-0.00016936,-0.01409063,0.00861089,-0.00609204,-0.041
 84649,-0.03227090,0.01197370,0.00670937,-0.29608939,-0.00966908,0.1365
 4210,0.62717525,0.01317468,0.00960148,-0.03540217,0.00098331,0.0018188
 9,-0.00086303,-0.00045767,0.00067266,0.00018891,0.00072233,0.00044409,
 -0.00109843,0.00053609,-0.00064117,0.00018349,0.00201776,0.00035887,-0
 .00088660,-0.00011323,0.00001258,0.00007832,0.00028661,0.00020501,0.00
 043778,-0.00003571,-0.00010139,0.00006867,-0.00005537,0.00003917,-0.00
 041572,0.00002072,-0.00006792,-0.00042190,-0.00484060,-0.01111654,0.00
 524619,-0.01213264,-0.00120359,0.00518428,0.00431871,0.00966908,-0.032
 98818,-0.01001258,-0.00717930,0.12003741,-0.00988472,0.01131892,-0.006
 58361,-0.00010832,-0.00485269,-0.00001385,0.00635940,0.00048934,0.0002
 9495,-0.00184244,0.00428090,0.00045767,-0.00009082,-0.00223278,-0.0020
 1776,-0.00090744,0.00107707,0.00146331,0.00015096,-0.00001717,-0.00016
 650,-0.00027140,-0.00006074,0.00003007,0.00006009,0.00001991,0.0002391
 4,-0.00002084,-0.00002695,0.00002668,-0.00015274,-0.00008504,-0.000101
 05,-0.16877563,-0.08598468,-0.00902613,0.01565512,-0.00725117,0.009098
 01,-0.00953141,0.04184649,-0.01213264,-0.27774859,0.05072423,0.0107054
 7,0.55553758,0.01138823,-0.04083498,0.02072855,0.00183101,-0.00108856,
 -0.00081371,0.00048934,0.00518740,-0.00095483,-0.00241848,0.00077763,-
 0.00067266,-0.00011652,0.00075295,0.00035887,-0.00107707,0.00171590,0.
 00151943,-0.00000975,0.00016568,0.00071366,0.00007194,0.00006292,0.000
 10619,-0.00014140,-0.00000624,-0.00040946,0.00013069,0.00007532,-0.000
 50289,-0.00022488,-0.00005628,0.00005781,-0.09915188,-0.22924378,-0.00
 491317,0.00725118,-0.05719606,0.00819627,0.02724819,-0.03227090,0.0012
 0359,0.06397253,-0.12012915,0.00099220,-0.08500647,0.78845524,-0.00505
 670,0.01561036,-0.03577394,-0.00076010,-0.00025081,0.00020080,-0.00029
 495,0.00095483,-0.00124927,0.00076751,0.00028822,0.00018891,0.00031552
 ,0.00207202,-0.00088660,-0.00146331,0.00151943,-0.00087053,-0.00008722
 ,0.00024888,0.00062875,0.00008213,-0.00005007,0.00005752,-0.00005556,-
 0.00004182,-0.00042093,0.00007150,-0.00000250,-0.00042754,-0.00003780,
 -0.00010444,0.00008797,0.00225690,0.01043736,-0.03365411,0.00909801,-0
 .00819627,0.00525376,-0.00245967,-0.01197370,0.00518428,-0.00762357,0.
 00712443,-0.03353033,0.00312721,-0.01121772,0.12110048,0.00057386,-0.0
 0039204,-0.00001952,0.00002795,0.00002839,-0.00008807,-0.00002084,0.00
 013069,-0.00007150,-0.00003650,-0.00004974,0.00005537,-0.00015229,-0.0
 0008989,0.00011323,0.00015096,0.00000975,0.00008722,-0.00000734,-0.000
 00433,0.00000914,0.00000080,0.00001532,-0.00000488,-0.00003824,-0.0000
 1090,-0.00004228,0.00010176,-0.00003210,-0.00010859,-0.00001306,0.0000
 3288,0.00003365,0.01187216,0.01729897,-0.00085134,-0.08650207,-0.08787
 211,0.00243689,0.00071236,-0.02603746,0.00122608,-0.00583653,-0.000838
 20,-0.00039500,-0.00344553,0.00341542,0.00045240,0.08030480,-0.0003258
 0,-0.00029714,-0.00000972,0.00016712,-0.00023224,0.00008273,-0.0000269
 5,0.00007532,0.00000250,0.00011146,0.00009206,-0.00003917,-0.00021968,
 -0.00005256,0.00001258,0.00001717,0.00016568,0.00024888,0.00000433,0.0
 0001662,0.00000559,0.00000691,0.00000811,0.00000902,-0.00000203,-0.000
 00348,-0.00003358,-0.00003210,0.00015842,-0.00024536,0.00000643,-0.000
 02248,-0.00005248,-0.01076663,-0.01136458,0.00100241,-0.08787762,-0.32
 784488,0.00756150,0.00198118,-0.00020426,0.00029794,0.00011845,0.00010
 295,0.00020491,0.00245909,-0.00229417,-0.00007975,0.09517430,0.3415772
 4,-0.00341262,-0.01059025,0.00304884,0.00007619,0.00004266,0.00006436,
 -0.00002668,0.00050289,-0.00042754,0.00030255,0.00036917,-0.00041572,-
 0.00000990,0.00011163,0.00007832,0.00016650,0.00071366,0.00062875,-0.0
 0000914,0.00000559,0.00011104,0.00001107,-0.00000080,0.00010471,-0.000
 07034,0.00000041,-0.00006393,0.00010859,0.00024536,-0.00063249,0.00004
 601,-0.00004811,-0.00007964,0.00274306,0.00213651,-0.00247919,0.003317
 78,0.01046836,-0.02548595,-0.00102909,0.00333861,-0.00250224,0.0005910
 0,0.00045568,0.00233343,-0.00019924,0.00068124,0.00232356,-0.00260810,
 -0.00840448,0.02460973,-0.00008600,0.00073442,0.00003536,0.00003573,0.
 00001284,-0.00002251,0.00006009,-0.00014140,0.00005556,0.00002873,0.00
 016518,0.00003571,0.00024991,-0.00003435,-0.00028661,-0.00027140,-0.00
 007194,-0.00008213,0.00000080,-0.00000691,-0.00001107,0.00000125,-0.00
 000566,0.00001825,0.00004452,-0.00008005,0.00022473,-0.00003824,-0.000
 00203,0.00007034,0.00001320,-0.00001106,-0.00000212,-0.00413722,-0.002
 22679,0.00021514,-0.01104591,0.01815031,-0.00114905,-0.25289364,0.1417
 7745,-0.00607586,0.00693736,-0.00399433,0.00005117,-0.00025952,-0.0019
 3212,-0.00030920,0.00066159,-0.00045063,-0.00002308,0.26056320,0.00060
 026,0.00030846,-0.00002257,-0.00014978,0.00001799,-0.00006790,0.000019
 91,-0.00000624,0.00004182,0.00003305,-0.00023226,0.00010139,0.00001105
 ,0.00016576,0.00020501,0.00006074,0.00006292,-0.00005007,-0.00001532,0
 .00000811,-0.00000080,0.00000566,-0.00005136,-0.00006553,-0.00008005,0
 .00012659,-0.00014269,-0.00001090,-0.00000348,-0.00000041,-0.00000262,
 -0.00000538,0.00001037,-0.00318362,-0.00161358,0.00040107,-0.00984658,
 0.01153707,-0.00045365,0.14183824,-0.16111657,0.00419889,0.02400927,-0
 .00641305,0.00123420,-0.00097324,-0.00548027,-0.00032397,0.00097059,-0
 .00003213,-0.00022409,-0.15363584,0.16104412,0.00920266,-0.00676375,0.
 00300814,-0.00047570,0.00010429,-0.00042658,-0.00023914,0.00040946,-0.
 00042093,-0.00011665,0.00001673,0.00006867,-0.00063001,0.00043003,0.00
 043778,-0.00003007,0.00010619,0.00005752,0.00000488,0.00000902,0.00010
 471,-0.00001825,-0.00006553,-0.00007373,-0.00022473,0.00014269,-0.0002
 8434,0.00004228,0.00003358,-0.00006393,-0.00000680,-0.00000713,0.00010
 796,-0.00072091,0.00003119,0.00233023,-0.00118570,0.00331020,-0.002533
 37,-0.00863380,0.00625714,-0.02549866,-0.00346945,0.00007852,-0.002476
 58,-0.00025904,0.00069358,0.00233328,0.00014275,-0.00017858,-0.0017151
 4,0.00673733,-0.00474971,0.02451905,-0.00008600,-0.00073442,0.00003536
 ,0.00003573,-0.00001284,-0.00002251,-0.00027140,0.00007194,-0.00008213
 ,0.00024991,0.00003435,-0.00028661,0.00002873,-0.00016518,0.00003571,0
 .00006009,0.00014140,0.00005556,-0.00003824,0.00000203,0.00007034,0.00
 004452,0.00008005,0.00022473,0.00000125,0.00000566,0.00001825,0.000000
 80,0.00000691,-0.00001107,0.00001320,0.00001106,-0.00000212,-0.0041372
 2,0.00222679,0.00021514,-0.00025952,0.00193212,-0.00030920,0.00693736,
 0.00399433,0.00005117,-0.25289364,-0.14177745,-0.00607586,-0.01104591,
 -0.01815031,-0.00114905,0.00050517,0.00005718,0.00006503,-0.00011036,-
 0.00070183,0.00023453,0.26056320,-0.00060026,0.00030846,0.00002257,0.0
 0014978,0.00001799,0.00006790,-0.00006074,0.00006292,0.00005007,-0.000
 01105,0.00016576,-0.00020501,-0.00003305,-0.00023226,-0.00010139,-0.00
 001991,-0.00000624,-0.00004182,0.00001090,-0.00000348,0.00000041,0.000
 08005,0.00012659,0.00014269,-0.00000566,-0.00005136,0.00006553,0.00001
 532,0.00000811,0.00000080,0.00000262,-0.00000538,-0.00001037,0.0031836
 2,-0.00161358,-0.00040107,0.00097324,-0.00548027,0.00032397,-0.0240092
 7,-0.00641305,-0.00123420,-0.14183824,-0.16111657,-0.00419889,0.009846
 58,0.01153707,0.00045365,-0.00135621,0.00008409,0.00020946,0.00070183,
 0.00075288,-0.00011544,0.15363584,0.16104412,0.00920266,0.00676375,0.0
 0300814,-0.00047570,-0.00010429,-0.00042658,-0.00003007,-0.00010619,0.
 00005752,-0.00063001,-0.00043003,0.00043778,-0.00011665,-0.00001673,0.
 00006867,-0.00023914,-0.00040946,-0.00042093,0.00004228,-0.00003358,-0
 .00006393,-0.00022473,-0.00014269,-0.00028434,-0.00001825,0.00006553,-
 0.00007373,0.00000488,-0.00000902,0.00010471,-0.00000680,0.00000713,0.
 00010796,-0.00072091,-0.00003119,0.00233023,-0.00025904,-0.00069358,0.
 00233328,-0.00346945,-0.00007852,-0.00247658,-0.00863380,-0.00625714,-
 0.02549866,-0.00118570,-0.00331020,-0.00253337,-0.00017983,-0.00012519
 ,0.00107837,0.00023453,0.00011544,-0.00163290,0.00673733,0.00474971,0.
 02451905,0.00057386,0.00039204,-0.00001952,0.00002795,-0.00002839,-0.0
 0008807,0.00015096,-0.00000975,0.00008722,-0.00015229,0.00008989,0.000
 11323,-0.00003650,0.00004974,0.00005537,-0.00002084,-0.00013069,-0.000
 07150,0.00010176,0.00003210,-0.00010859,-0.00003824,0.00001090,-0.0000
 4228,0.00000080,-0.00001532,-0.00000488,-0.00000734,0.00000433,0.00000
 914,-0.00001306,-0.00003288,0.00003365,0.01187216,-0.01729897,-0.00085
 134,-0.00344553,-0.00341542,0.00045240,-0.00583653,0.00083820,-0.00039
 500,0.00071236,0.02603746,0.00122608,-0.08650207,0.08787211,0.00243689
 ,0.00097701,-0.00070710,0.00007081,0.00050517,0.00135621,-0.00017983,0
 .00066159,-0.00097059,0.00014275,0.08030480,0.00032580,-0.00029714,0.0
 0000972,-0.00016712,-0.00023224,-0.00008273,-0.00001717,0.00016568,-0.
 00024888,0.00021968,-0.00005256,-0.00001258,-0.00011146,0.00009206,0.0
 0003917,0.00002695,0.00007532,-0.00000250,0.00003210,0.00015842,0.0002
 4536,0.00000203,-0.00000348,0.00003358,-0.00000691,0.00000811,-0.00000
 902,-0.00000433,0.00001662,-0.00000559,-0.00000643,-0.00002248,0.00005
 248,0.01076663,-0.01136458,-0.00100241,-0.00245909,-0.00229417,0.00007
 975,-0.00011845,0.00010295,-0.00020491,-0.00198118,-0.00020426,-0.0002
 9794,0.08787762,-0.32784488,-0.00756150,0.00070710,-0.00038818,0.00020
 710,-0.00005718,0.00008409,0.00012519,0.00045063,-0.00003213,0.0001785
 8,-0.09517430,0.34157724,-0.00341262,0.01059025,0.00304884,0.00007619,
 -0.00004266,0.00006436,0.00016650,-0.00071366,0.00062875,-0.00000990,-
 0.00011163,0.00007832,0.00030255,-0.00036917,-0.00041572,-0.00002668,-
 0.00050289,-0.00042754,0.00010859,-0.00024536,-0.00063249,-0.00007034,
 -0.00000041,-0.00006393,0.00001107,0.00000080,0.00010471,-0.00000914,-
 0.00000559,0.00011104,0.00004601,0.00004811,-0.00007964,0.00274306,-0.
 00213651,-0.00247919,-0.00019924,-0.00068124,0.00232356,0.00059100,-0.
 00045568,0.00233343,-0.00102909,-0.00333861,-0.00250224,0.00331778,-0.
 01046836,-0.02548595,0.00007081,-0.00020710,0.00108005,0.00006503,-0.0
 0020946,0.00107837,-0.00002308,0.00022409,-0.00171514,-0.00260810,0.00
 840448,0.02460973,-0.00058085,0.,-0.00003061,0.00021105,0.,0.00031445,
 -0.00015274,-0.00022488,0.00003780,0.00009790,0.00006702,-0.00002072,0
 .00009790,-0.00006702,-0.00002072,-0.00015274,0.00022488,0.00003780,-0
 .00001306,-0.00000643,-0.00004601,0.00001320,0.00000262,0.00000680,0.0
 0001320,-0.00000262,0.00000680,-0.00001306,0.00000643,-0.00004601,0.00
 014348,0.,-0.00025257,-0.35627737,0.,0.00811432,-0.00717578,-0.0045582
 5,0.00068907,-0.00068375,0.00155082,0.00007573,-0.00068374,-0.00155082
 ,0.00007573,-0.00717578,0.00455824,0.00068907,0.00016400,0.00030496,-0
 .00011037,-0.00025925,-0.00030520,-0.00017435,-0.00025925,0.00030520,-
 0.00017435,0.00016400,-0.00030496,-0.00011037,0.37252266,0.,0.00067788
 ,0.,0.,0.00012709,0.,-0.00008504,-0.00005628,0.00010444,-0.00009156,-0
 .00004317,0.00006792,0.00009156,-0.00004317,-0.00006792,0.00008504,-0.
 00005628,-0.00010444,-0.00003288,-0.00002248,-0.00004811,0.00001106,-0
 .00000538,-0.00000713,-0.00001106,-0.00000538,0.00000713,0.00003288,-0
 .00002248,0.00004811,0.,0.00009032,0.,0.,-0.05789415,0.,0.02344921,0.0
 0771517,-0.00109338,0.00251247,-0.00506135,0.00044639,-0.00251247,-0.0
 0506135,-0.00044639,-0.02344921,0.00771517,0.00109338,-0.00110044,0.00
 045561,-0.00022062,0.00110826,0.00084632,0.00013232,-0.00110826,0.0008
 4632,-0.00013232,0.00110044,0.00045561,0.00022062,0.,0.04934198,-0.011
 38800,0.,0.00304654,0.00079026,0.,0.00045571,0.00010105,-0.00005781,0.
 00008797,0.00046435,0.00016936,-0.00042190,0.00046435,-0.00016936,-0.0
 0042190,0.00010105,0.00005781,0.00008797,-0.00003365,-0.00005248,-0.00
 007964,0.00000212,0.00001037,0.00010796,0.00000212,-0.00001037,0.00010
 796,-0.00003365,0.00005248,-0.00007964,0.00025257,0.,-0.00043024,0.011
 38036,0.,-0.02553954,0.00292523,0.00198841,-0.00252675,0.00059398,-0.0
 0041597,0.00232536,0.00059398,0.00041597,0.00232536,0.00292522,-0.0019
 8841,-0.00252675,-0.00025842,-0.00005266,-0.00165932,0.00021850,0.0000
 0267,0.00108045,0.00021850,-0.00000267,0.00108045,-0.00025842,0.000052
 66,-0.00165932,-0.00906150,0.,0.02463925\\-0.00001172,0.,0.,0.00000636
 ,0.,-0.00000173,0.00000366,-0.00000636,-0.00000190,-0.00000323,-0.0000
 0330,-0.00000155,-0.00000323,0.00000330,-0.00000155,0.00000366,0.00000
 635,-0.00000190,0.00000343,-0.00001138,0.00000247,-0.00001019,-0.00000
 715,0.00000141,-0.00001019,0.00000715,0.00000141,0.00000343,0.00001138
 ,0.00000247,0.00001214,0.,0.00000226,0.00000636,0.,0.00000173,0.000003
 66,0.00000635,0.00000190,-0.00000323,0.00000330,0.00000155,-0.00000323
 ,-0.00000330,0.00000155,0.00000366,-0.00000636,0.00000190,0.00000343,0
 .00001138,-0.00000247,-0.00001019,0.00000715,-0.00000141,-0.00001019,-
 0.00000715,-0.00000141,0.00000343,-0.00001138,-0.00000247,0.00001214,0
 .,-0.00000226\\\@


 ERROR IS THE FORCE THAT WELDS MEN TOGETHER....
 TRUTH IS COMMUNICATED TO MEN ONLY BY DEEDS OF TRUTH.
           TOLSTOI,MY RELIGION
 Job cpu time:       0 days  0 hours 41 minutes 13.4 seconds.
 File lengths (MBytes):  RWF=     74 Int=      0 D2E=      0 Chk=     10 Scr=      1
 Normal termination of Gaussian 09 at Tue Jun 28 22:55:03 2016.
